 Set GAUSS_MDEF to "92GB".
 Set GAUSS_PDEF to "56".
 Entering Gaussian System, Link 0=gdv
 AtFile(1): SDDPlusTZ.gbs
            ! SDDPlusTZ Basis Set + ECP
            !
            !
            ! Last updated/modified by: H. P. Hratchian, August 2017.
            !
            !
            ! This file contains parameters for the SDD+TZ basis set and ECP, given in the
            ! Gaussian input format. This set is often used in the Hratchian Group's metal
            ! oxide cluster work. References to this basis and ECP are:
            !      (1) Waller, S. E.; Mann, J. E.; Rothgeb, D. W.; Jarrold, C. C. J. Phys.
            !          Chem. A 2012, 116 (39), 9639–9652.
            !      (2) Mayhall, N. J.; Rothgeb, D. W.; Hossain, E.; Raghavachari, K.;
            !          Jarrold, C. C. J. Chem. Phys. 2009, 130, 124313− 124323.
            !      (3) Andrae, D.; Haussermann, U.; Dolg, M.; Stoll, H.; Preuss, H. Theor.
            !          Chim. Acta 1990, 77, 123−141.
            !
            -Sc 0
            SDD
            S 1 1.00
             0.003 1.0
            P 1 1.00
             0.0071415 1.0
            D 1 1.00
             0.012 1.0
             F   1 1.00
                  0.180    1.0
             F   1 1.00
                  0.764    1.0
             G   1 1.00
                  0.347    1.0
            ****
            -Ti 0
            SDD
            S 1 1.00
             0.003 1.0
            P 1 1.00
             0.0071352 1.0
            D 1 1.00
             0.015 1.0
             F   1 1.00
                  0.285    1.0
             F   1 1.00
                  1.264    1.0
             G   1 1.00
                  0.636    1.0
            ****
            -V 0
            SDD
            S 1 1.00
             0.003 1.0
            P 1 1.00
             0.0079179 1.0
            D 1 1.00
             0.018 1.0
             F   1 1.00
                  0.425    1.0
             F   1 1.00
                  1.788    1.0
             G   1 1.00
                  1.048    1.0
            ****
            -Cr 0
            SDD
            S 1 1.00
             0.003 1.0
            P 1 1.00
             0.0079935 1.0
            D 1 1.00
             0.021 1.0
             F   1 1.00
                  0.640    1.0
             F   1 1.00
                  2.555    1.0
             G   1 1.00
                  1.712    1.0
            ****
            -Mn 0
            SDD
            S 1 1.00
             0.003 1.0
            P 1 1.00
             0.0084888 1.0
            D 1 1.00
             0.021 1.0
             F   1 1.00
                  0.795    1.0
             F   1 1.00
                  3.118    1.0
             G   1 1.00
                  1.964    1.0
            ****
            -Fe 0
            SDD
            S 1 1.00
             0.003 1.0
            P 1 1.00
             0.0088332 1.0
            D 1 1.00
             0.024 1.0
             F   1 1.00
                  0.871    1.0
             F   1 1.00
                  3.516    1.0
             G   1 1.00
                  2.269    1.0
            ****
            -Co 0
            SDD
            S 1 1.00
             0.003 1.0
            P 1 1.00
             0.0091782 1.0
            D 1 1.00
             0.027 1.0
             F   1 1.00
                  1.019    1.0
             F   1 1.00
                  4.076    1.0
             G   1 1.00
                  2.711    1.0
            ****
            -Ni 0
            SDD
            S 1 1.00
             0.003 1.0
            P 1 1.00
             0.0095352 1.0
            D 1 1.00
             0.027 1.0
             F   1 1.00
                  1.182    1.0
             F   1 1.00
                  4.685    1.0
             G   1 1.00
                  3.212    1.0
            ****
            -Cu 0
            SDD
            S 1 1.00
             0.003 1.0
            P 1 1.00
             0.0092634 1.0
            D 1 1.00
             0.030 1.0
             F   1 1.00
                  1.315    1.0
             F   1 1.00
                  5.208    1.0
             G   1 1.00
                  3.665    1.0
            ****
            -Zn 0
            SDD
            S 1 1.00
             0.003 1.0
            P 1 1.00
             0.0149958 1.0
            D 1 1.00
             0.033 1.0
             F   1 1.00
                  1.498    1.0
             F   1 1.00
                  5.871    1.0
             G   1 1.00
                  4.365    1.0
            ****
            -Y 0
            SDD
            S 1 1.00
             0.003 1.0
            P 1 1.00
             0.0066708 1.0
            D 1 1.00
             0.006 1.0
             F   1 1.00
                  0.144    1.0
             F   1 1.00
                  0.546    1.0
             G   1 1.00
                  0.249    1.0
            ****
            -Zr 0
            SDD
            S 1 1.00
             0.0033 1.0
            P 1 1.00
             0.0067569 1.0
            D 1 1.00
             0.009 1.0
             F   1 1.00
                  0.236    1.0
             F   1 1.00
                  0.883    1.0
             G   1 1.00
                  0.547    1.0
            ****
            -Nb 0
            SDD
            S 1 1.00
             0.0045 1.0
            P 1 1.00
             0.0701512 1.0
            D 1 1.00
             0.011 1.0
             F    1 1.00
                   0.261   1.0
             F    1 1.00
                   0.970   1.0
             G    1 1.00
                   0.536   1.0
            ****
            -Mo 0
            SDD
            S 1 1.00
             0.0045 1.0
            P 1 1.00
             0.0070821 1.0
            D 1 1.00
             0.0129 1.0
             F   1 1.00
                  0.338    1.0
             F   1 1.00
                  1.223    1.0
             G   1 1.00
                  0.744    1.0
            ****
            -Ru 0
            SDD
            S 1 1.00
             0.0048 1.0
            P 1 1.00
             0.0068781 1.0
            D 1 1.00
             0.0153 1.0
             F   1 1.00
                  0.478    1.0
             F   1 1.00
                  1.666    1.0
             G   1 1.00
                  1.057    1.0
            ****
            -Rh 0
            SDD
            S 1 1.00
             0.0048 1.0
            P 1 1.00
             0.007251 1.0
            D 1 1.00
             0.0165 1.0
             F   1 1.00
                  0.567    1.0
             F   1 1.00
                  1.989    1.0
             G   1 1.00
                  1.236    1.0
            ****
            -Pd 0
            SDD
            S 1 1.00
             0.0048 1.0
            P 1 1.00
             0.0074262 1.0
            D 1 1.00
             0.018 1.0
             F   1 1.00
                  0.621    1.0
             F   1 1.00
                  2.203    1.0
             G   1 1.00
                  1.385    1.0
            ****
            -Ag 0
            SDD
            S 1 1.00
             0.0048 1.0
            P 1 1.00
             0.0071169 1.0
            D 1 1.00
             0.0198 1.0
             F   1 1.00
                  0.732    1.0
             F   1 1.00
                  2.537    1.0
             G   1 1.00
                  1.587    1.0
            ****
            -Cd 0
            SDD
            S 1 1.00
             0.0057 1.0
            P 1 1.00
             0.0109932 1.0
            D 1 1.00
             0.0225 1.0
             F   1 1.00
                  0.834    1.0
             F   1 1.00
                  2.853    1.0
             G   1 1.00
                  1.795    1.0
            ****
            -W 0
             SDD
            S 1 1.00
             0.0045 1.0
            P 1 1.00
             0.0081084 1.0
            D 1 1.00
             0.012 1.0
             F   1 1.00
                  0.256    1.0
             F   1 1.00
                  0.825    1.0
             G   1 1.00
                  0.627    1.0
            ****
            -Os 0
            SDD
            S 1 1.00
             0.0045 1.0
            P 1 1.00
             0.0079971 1.0
            D 1 1.00
             0.015 1.0
             F   1 1.00
                  0.347    1.0
             F   1 1.00
                  1.067    1.0
             G   1 1.00
                  0.860    1.0
            ****
            -Ir 0
            SDD
            S 1 1.00
             0.0045 1.0
            P 1 1.00
             0.0082092 1.0
            D 1 1.00
             0.015 1.0
             F   1 1.00
                  0.395    1.0
             F   1 1.00
                  1.189    1.0
             G   1 1.00
                  0.982    1.0
            ****
            -Pt 0
            SDD
            S 1 1.00
             0.0045 1.0
            P 1 1.00
             0.0083406 1.0
            D 1 1.00
             0.015 1.0
             F   1 1.00
                  0.443    1.0
             F   1 1.00
                  1.323    1.0
             G   1 1.00
                  1.100    1.0
            ****
            -Au 0
            SDD
            S 1 1.00
             0.0019245 1.0
            P 1 1.00
             0.0102 1.0
            D 1 1.00
             0.0136536 1.0
             F   1 1.00
                  1.461    1.0
             F   1 1.00
                  0.498    1.0
             G   1 1.00
                  1.218    1.0
            ****
            !
            ! Gd ... HPH Added S, P, D, and F diffuse functions using 0.3 exponent ratio.
            -Gd 0
            SDD
            S 1 1.00
             0.0071100 1.0
            P 1 1.00
             0.0240000 1.0
            D 1 1.00
             0.0311100 1.0
            F 1 1.00
             0.0856500 1.0
            ****
            -H  B  C  N  O  F  P  S  Cl 0
            aug-cc-pVTz
            ****
            
            -Sc  Ti  V  Cr  Mn  Fe  Co  Ni  Cu  Zn  Y  Zr  Nb  Mo  Ru  Rh  Pd  Ag  Cd  W  Os  Ir  Pt  Au  Gd  0
            SDD
 Initial command:
 /home/hhratchian/gaussian/gdv-20250101-j30+/gdv/local/l1.exe "/scratch/aaboutaka/1562801/Gau-70688.inp" -scrdir="/scratch/aaboutaka/1562801/"
 Default is to use a total of  56 processors:
                               56 via shared-memory
                                1 via Linda
 Entering Link 1 = /home/hhratchian/gaussian/gdv-20250101-j30+/gdv/local/l1.exe PID=     70689.
  
 Copyright (c) 1988-2024, Gaussian, Inc.  All Rights Reserved.
  
 This is the private, development version of
 the Gaussian(R) DV system of programs. It is based on
 the Gaussian(R) 16 system (copyright 2016, Gaussian, Inc.),
 the Gaussian(R) 09 system (copyright 2009, Gaussian, Inc.),
 the Gaussian(R) 03 system (copyright 2003, Gaussian, Inc.),
 the Gaussian(R) 98 system (copyright 1998, Gaussian, Inc.),
 the Gaussian(R) 94 system (copyright 1995, Gaussian, Inc.),
 the Gaussian 92(TM) system (copyright 1992, Gaussian, Inc.),
 the Gaussian 90(TM) system (copyright 1990, Gaussian, Inc.),
 the Gaussian 88(TM) system (copyright 1988, Gaussian, Inc.),
 the Gaussian 86(TM) system (copyright 1986, Carnegie Mellon
 University), and the Gaussian 82(TM) system (copyright 1983,
 Carnegie Mellon University). Gaussian is a federally registered
 trademark of Gaussian, Inc.
  
 This software contains proprietary and confidential information,
 including trade secrets, belonging to Gaussian, Inc.
  
 This software is provided under written license and may be
 used, copied, transmitted, or stored only in accord with that
 written license.
  
 The following legend is applicable only to US Government
 contracts under FAR:
  
                    RESTRICTED RIGHTS LEGEND
  
 Use, reproduction and disclosure by the US Government is
 subject to restrictions as set forth in subparagraphs (a)
 and (c) of the Commercial Computer Software - Restricted
 Rights clause in FAR 52.227-19.
  
 Gaussian, Inc.
 340 Quinnipiac St., Bldg. 40, Wallingford CT 06492
  
  
 ---------------------------------------------------------------
 Warning -- This program may not be used in any manner that
 competes with the business of Gaussian, Inc. or will provide
 assistance to any competitor of Gaussian, Inc.  The licensee
 of this program is prohibited from giving any competitor of
 Gaussian, Inc. access to this program.  By using this program,
 the user acknowledges that Gaussian, Inc. is engaged in the
 business of creating and licensing software in the field of
 computational chemistry and represents and warrants to the
 licensee that it is not a competitor of Gaussian, Inc. and that
 it will not use this program in any manner prohibited above.
 ---------------------------------------------------------------
  

 Cite this work as:
 Gaussian Development Version, Revision J.30+,
 M. J. Frisch, G. W. Trucks, G. Scalmani, J. R. Cheeseman, X. Li, 
 J. Bloino, B. G. Janesko, A. V. Marenich, J. Zheng, F. Lipparini, 
 A. Jenkins, A. Liu, H. Liu, H. B. Schlegel, G. E. Scuseria, 
 M. A. Robb, V. Barone, G. A. Petersson, H. Nakatsuji, B. Mennucci, 
 C. Adamo, N. Rega, M. Caricato, H. P. Hratchian, J. V. Ortiz, 
 F. Pawlowski, A. F. Izmaylov, H. Hu, C. Liao, J. L. Sonnenberg, 
 D. Williams-Young, F. Ding, R. Gomperts, F. Egidi, J. Goings, 
 B. Peng, A. Petrone, T. Henderson, D. Ranasinghe, V. G. Zakrzewski, 
 J. Gao, G. Zheng, W. Liang, M. Hada, M. Ehara, K. Toyota, R. Fukuda, 
 J. Hasegawa, M. Ishida, T. Nakajima, Y. Honda, O. Kitao, H. Nakai, 
 T. Vreven, K. Throssell, J. A. Montgomery, Jr., J. E. Peralta, 
 F. Ogliaro, M. J. Bearpark, J. J. Heyd, E. N. Brothers, K. N. Kudin, 
 V. N. Staroverov, T. A. Keith, R. Kobayashi, J. Normand, 
 K. Raghavachari, A. P. Rendell, J. C. Burant, S. S. Iyengar, 
 M. Cossi, J. M. Millam, M. Klene, R. Cammi, R. L. Martin, O. Farkas, 
 J. B. Foresman, and D. J. Fox, Gaussian, Inc., Wallingford CT, 2024.
 
 *******************************************
 Gaussian DV:  ES64L-GDVRevJ.30+ 18-Dec-2024
                  2-Aug-2025 
 *******************************************
 %Chk=H2_CAMB3LYP_genecp.chk
 -------------------------------------------------------------
 #P CAM-B3LYP/genecp SCF=(fermi,novaracc) Guess=Mix Stable=Opt
 -------------------------------------------------------------
 1/37=210000000,38=1,172=1/1;
 2/12=2/2;
 3/5=7,11=2,16=1,17=8,25=1,30=1,74=-40/1,2,3;
 4/13=-1/1;
 5/5=2,22=13,38=1/2;
 6/7=2,8=2,9=2,10=2,28=1/1;
 8/6=1,10=90,11=11/1;
 9/8=-3,42=1,46=1/14;
 5/5=2,8=3,17=40,22=13,38=1/8(-2);
 6/7=2,8=2,9=2,10=2,28=1/1;
 99/5=1,9=1/99;
 Leave Link    1 at Sat Aug  2 15:34:17 2025, MaxMem=           0 cpu:               1.8 elap:               0.1
 (Enter /home/hhratchian/gaussian/gdv-20250101-j30+/gdv/local/l101.exe)
 
  Hrant - IAPOps =                         0
  Hrant - IAPOp1 =                         0
  Hrant - IAPOp2 =                         0
  Hrant - DoAP   =   F
 
 ------------------------------
 Initial Stability Check for H2
 ------------------------------
 Symbolic Z-matrix:
 Charge =     0 Multiplicity =     1
 H                     0.        0.        0. 
 H                     0.        0.        0.74 
 
 ITRead=  0  0
 MicOpt= -1 -1
 NAtoms=      2 NQM=        2 NQMF=       0 NMMI=      0 NMMIF=      0
                NMic=       0 NMicF=      0.
                    Isotopes and Nuclear Properties:
 (Nuclear quadrupole moments (NQMom) in fm**2, nuclear magnetic moments (NMagM)
  in nuclear magnetons)

  Atom         1           2
 IAtWgt=           1           1
 AtmWgt=   1.0078250   1.0078250
 NucSpn=           1           1
 AtZEff=   -0.000000   -0.000000
 NQMom=    0.0000000   0.0000000
 NMagM=    2.7928460   2.7928460
 AtZNuc=   1.0000000   1.0000000
 Leave Link  101 at Sat Aug  2 15:34:17 2025, MaxMem= 12348030976 cpu:               2.5 elap:               0.1
 (Enter /home/hhratchian/gaussian/gdv-20250101-j30+/gdv/l202.exe)
                          Input orientation:                          
 ---------------------------------------------------------------------
 Center     Atomic      Atomic             Coordinates (Angstroms)
 Number     Number       Type             X           Y           Z
 ---------------------------------------------------------------------
      1          1           0        0.000000    0.000000    0.000000
      2          1           0        0.000000    0.000000    0.740000
 ---------------------------------------------------------------------
 Stoichiometry    H2
 Framework group  D*H[C*(H.H)]
 Deg. of freedom     1
 Full point group                 D*H     NOp   8
 Largest Abelian subgroup         D2H     NOp   8
 Largest concise Abelian subgroup C2      NOp   2
                         Standard orientation:                         
 ---------------------------------------------------------------------
 Center     Atomic      Atomic             Coordinates (Angstroms)
 Number     Number       Type             X           Y           Z
 ---------------------------------------------------------------------
      1          1           0        0.000000    0.000000    0.370000
      2          1           0        0.000000    0.000000   -0.370000
 ---------------------------------------------------------------------
 Rotational constants (GHZ):           0.0000000        1831.4649542        1831.4649542
 Leave Link  202 at Sat Aug  2 15:34:17 2025, MaxMem= 12348030976 cpu:               1.5 elap:               0.0
 (Enter /home/hhratchian/gaussian/gdv-20250101-j30+/gdv/local/l301.exe)
 General  basis read from cards:  (5D, 7F)
 Centers:       1      2
 aug-cc-pVTz
 ****
 ======================================================================================================
                                       Pseudopotential Parameters
 ======================================================================================================
  Center     Atomic      Valence      Angular      Power
  Number     Number     Electrons     Momentum     of R      Exponent        Coefficient   SO-Coeffient
 ======================================================================================================
    1          1
                                   No pseudopotential on this center.
    2          1
                                   No pseudopotential on this center.
 ======================================================================================================
 Ernie: Thresh=  0.10000D-02 Tol=  0.10000D-05 Strict=F.
 There are    13 symmetry adapted cartesian basis functions of AG  symmetry.
 There are     2 symmetry adapted cartesian basis functions of B1G symmetry.
 There are     5 symmetry adapted cartesian basis functions of B2G symmetry.
 There are     5 symmetry adapted cartesian basis functions of B3G symmetry.
 There are     2 symmetry adapted cartesian basis functions of AU  symmetry.
 There are    13 symmetry adapted cartesian basis functions of B1U symmetry.
 There are     5 symmetry adapted cartesian basis functions of B2U symmetry.
 There are     5 symmetry adapted cartesian basis functions of B3U symmetry.
 There are    11 symmetry adapted basis functions of AG  symmetry.
 There are     2 symmetry adapted basis functions of B1G symmetry.
 There are     5 symmetry adapted basis functions of B2G symmetry.
 There are     5 symmetry adapted basis functions of B3G symmetry.
 There are     2 symmetry adapted basis functions of AU  symmetry.
 There are    11 symmetry adapted basis functions of B1U symmetry.
 There are     5 symmetry adapted basis functions of B2U symmetry.
 There are     5 symmetry adapted basis functions of B3U symmetry.
    46 basis functions,    54 primitive gaussians,    50 cartesian basis functions
     1 alpha electrons        1 beta electrons
       nuclear repulsion energy         0.7151043391 Hartrees.
 IExCor=   2004019 DFT=T Ex+Corr=CAM-B3LYP ScaHFX=  1.000000
 ScaDFX=  1.000000  1.000000  1.000000  0.810000  1.000000  0.000000
 ScaDFX=  0.000000  0.000000  0.000000  0.000000  0.000000  0.000000
 Grid=UltraFine IRanWt=     -1 IRanGd=            0 ICorTp=0 IEDCtl=  2004
 HFx  wShort=  0.000000 wLong=  0.330000 cFull=  0.190000 cShort=  0.000000 cLong=  0.460000
 DFx  wShort=  0.330000 wLong=  0.000000 cFull=  0.350000 cShort=  0.460000 cLong=  0.000000
 NAtoms=    2 NActive=    2 NUniq=    1 SFac= 4.00D+00 NAtFMM=   60 NAOKFM=F Big=F
 Integral buffers will be    131072 words long.
 Raffenetti 2 integral format.
 Two-electron integral symmetry is turned on.
 Leave Link  301 at Sat Aug  2 15:34:17 2025, MaxMem= 12348030976 cpu:               0.2 elap:               0.1
 (Enter /home/hhratchian/gaussian/gdv-20250101-j30+/gdv/l302.exe)
 NPDir=0 NMtPBC=     1 NCelOv=     1 NCel=       1 NClECP=     1 NCelD=      1
         NCelK=      1 NCelE2=     1 NClLst=     1 CellRange=     0.0.
 One-electron integrals computed using PRISM.
 One-electron integral symmetry used in STVInt
   8 Symmetry operations used in ECPInt.
 ECPInt:  NShTT=     171 NPrTT=     259 LenC2=     172 LenP2D=     259.
 LDataN:  DoStor=T MaxTD1= 4 Len=   56
 NBasis=    46 RedAO= T EigKep=  5.38D-05  NBF=    11     2     5     5     2    11     5     5
 NBsUse=    46 1.00D-06 EigRej= -1.00D+00 NBFU=    11     2     5     5     2    11     5     5
 Precomputing XC quadrature grid using
 IXCGrd=   9 Grid=UltraFine IRanWt=          -1 IRanGd=           0 AccXCQ= 0.00D+00.
 Generated NRdTot=       0 NPtTot=       48648 NUsed=           0 NTot=          64
 NSgBfM=    50    50    50    50    50 MxSgAt=     2 MxSgA2=     2 SizInc=   0.000
 NMBTot=      690 MaxBatPerAtom=       86 MaxMicBPerAtom=      349 NBfPt=             1968648.
 Leave Link  302 at Sat Aug  2 15:34:17 2025, MaxMem= 12348030976 cpu:               4.6 elap:               0.2
 (Enter /home/hhratchian/gaussian/gdv-20250101-j30+/gdv/l303.exe)
 DipDrv:  MaxL=1.
 Leave Link  303 at Sat Aug  2 15:34:17 2025, MaxMem= 12348030976 cpu:               1.4 elap:               0.1
 (Enter /home/hhratchian/gaussian/gdv-20250101-j30+/gdv/l401.exe)
 ExpMin= 2.53D-02 ExpMax= 3.39D+01 ExpMxC= 3.39D+01 IAcc=3 Grid=UltraFine AccDes= 0.00D+00
 Harris functional with IExCor=10009 and Grid=UltraFine diagonalized for initial guess.
 HarFok:  IExCor=   10009 AccDes= 0.00D+00 Grid=UltraFine IDoV= 1 UseB2=F ITyADJ=14 ICtDFT=  3500011
 FoFCou: FMM=F IPFlag=           0 FMFlag=      100000 FMFlg1=           0
         NFxFlg=           0 DoJE=T BraDBF=F KetDBF=T FulRan=T
         wScrn=  0.000000 ICntrl=       500 IOpCl=  0 I1Cent=   200000004 NGrid=           0
         NMat0=    1 NMatS0=      1 NMatT0=    0 NMatD0=    1 NMtDS0=    0 NMtDT0=    0
 Petite list used in FoFCou.
 Harris En= -1.18170193262135    
 JPrj=0 DoOrth=F DoCkMO=T.
 Mixing orbitals, IMix= 1 IMixAn=  0 NRI=1 NE=    1 Coef=  7.07106781D-01  7.07106781D-01
 Initial guess orbital symmetries:
       Occupied  (?A)
       Virtual   (?A) (SGG) (SGU) (PIU) (PIU) (SGG) (PIG) (PIG)
                 (SGG) (SGU) (SGU) (DLTG) (DLTG) (PIU) (PIU) (SGG)
                 (PIG) (PIG) (SGU) (DLTU) (DLTU) (PIU) (PIU) (SGG)
                 (PIG) (PIG) (SGU) (SGU) (SGG) (PIU) (PIU) (DLTG)
                 (DLTG) (SGG) (DLTU) (DLTU) (PIU) (PIU) (PIG) (PIG)
                 (SGU) (PIG) (PIG) (SGG) (SGU)
 Leave Link  401 at Sat Aug  2 15:34:18 2025, MaxMem= 12348030976 cpu:               7.7 elap:               0.2
 (Enter /home/hhratchian/gaussian/gdv-20250101-j30+/gdv/local/l502.exe)
 Keep R1 ints in memory in symmetry-blocked form, NReq=50169242.
 FoFCou: FMM=F IPFlag=           0 FMFlag=           0 FMFlg1=           0
         NFxFlg=           0 DoJE=F BraDBF=F KetDBF=F FulRan=T
         wScrn=  0.000000 ICntrl=       600 IOpCl=  0 I1Cent=           0 NGrid=           0
         NMat0=    1 NMatS0=   1081 NMatT0=    0 NMatD0=    1 NMtDS0=    0 NMtDT0=    0
 Petite list used in FoFCou.
 Closed shell SCF:
 Using DIIS extrapolation, IDIIS=    10.
 NGot= 12348030976 LenX= 12347938907 LenY= 12347935966
 Requested convergence on RMS density matrix=1.00D-08 within 128 cycles.
 Requested convergence on MAX density matrix=1.00D-06.
 Requested convergence on             energy=1.00D-06.
 Level shift goal  0.100 maximum shift  0.100.
 No special actions if energy rises.
 Dynamic level shift is on during FON iterations.
 An orbital has undefined symmetry, so N**3 symmetry is turned off.
 
  Hrant - CycOpn.
 

 Cycle   1  Pass 1  IDiag  1:
 Density matrix breaks symmetry, PCut= 1.00D-04
 Density matrix has no symmetry -- integrals replicated.
 E=-0.648729451676083    
 DIIS: error= 1.06D-01 at cycle   1 NSaved=   1.
 NSaved= 1 IEnMin= 1 EnMin=-0.648729451676083     IErMin= 1 ErrMin= 1.06D-01
 ErrMax= 1.06D-01  0.00D+00 EMaxC= 1.00D+00 BMatC= 4.17D-02 BMatP= 4.17D-02
 Rises=F IDIUse=1 WtCom= 1.00D+00 WtEn= 0.00D+00
 Coeff-Com:  0.100D+01
 Coeff:      0.100D+01
 Gap=     0.068 Goal=     0.100 Shift=    0.032
 T= 2252. Gap= 0.561 NK=0 IS=    2 IE=   46 IFin=    1
          NO(<0.9)=   0  NV(>0.1)=   0      1.00e < EF      0.00e >EF  Err=0.0D+00
 GapD=    0.068 DampG=0.500 DampE=0.250 DampFc=0.1250 IDamp=-1.
 Damping current iteration by 1.25D-01
 RMSDP=1.31D-01 MaxDP=2.93D+00              OVMax= 6.43D-01

 Cycle   2  Pass 1  IDiag  1:
 Density matrix breaks symmetry, PCut= 1.00D-04
 Density matrix has no symmetry -- integrals replicated.
 E=-0.711437156074626     Delta-E=       -0.062707704399 Rises=F Damp=T AM=F Ri=F Fa=F
 DIIS: error= 9.45D-02 at cycle   2 NSaved=   2.
 NSaved= 2 IEnMin= 2 EnMin=-0.711437156074626     IErMin= 2 ErrMin= 9.45D-02
 ErrMax= 9.45D-02  0.00D+00 EMaxC= 1.00D+00 BMatC= 3.19D-02 BMatP= 4.17D-02
 Rises=F IDIUse=1 WtCom= 1.00D+00 WtEn= 0.00D+00
 Coeff-Com: -0.608D+01 0.708D+01
 Coeff:     -0.608D+01 0.708D+01
 Gap=     0.574 Goal=     0.100 Shift=    0.000
 DSYEVD-2 returned Info=          93 IAlg= 4 N=    46 NDim=    46 NE2=   268433389 trying  DSYEV.
 T= 2230. Gap= 0.514 NK=0 IS=    2 IE=   46 IFin=    1
          NO(<0.9)=   0  NV(>0.1)=   0      1.00e < EF      0.00e >EF  Err=0.0D+00
 GapD=    0.574 DampG=2.000 DampE=0.500 DampFc=1.0000 IDamp=-1.
 RMSDP=1.18D-01 MaxDP=2.61D+00 DE=-6.27D-02 OVMax= 8.39D-02

 Cycle   3  Pass 1  IDiag  1:
 Density matrix breaks symmetry, PCut= 1.00D-04
 Density matrix has no symmetry -- integrals replicated.
 E= -1.16171684883467     Delta-E=       -0.450279692760 Rises=F Damp=F AM=F Ri=F Fa=F
 DIIS: error= 2.29D-02 at cycle   3 NSaved=   3.
 NSaved= 3 IEnMin= 3 EnMin= -1.16171684883467     IErMin= 3 ErrMin= 2.29D-02
 ErrMax= 2.29D-02  0.00D+00 EMaxC= 1.00D+00 BMatC= 5.08D-03 BMatP= 3.19D-02
 Rises=F IDIUse=1 WtCom= 1.00D+00 WtEn= 0.00D+00
 Coeff-Com: -0.339D+01 0.394D+01 0.454D+00
 Coeff:     -0.339D+01 0.394D+01 0.454D+00
 Gap=     0.511 Goal=     0.100 Shift=    0.000
 T= 2041. Gap= 0.512 NK=0 IS=    2 IE=   46 IFin=    1
          NO(<0.9)=   0  NV(>0.1)=   0      1.00e < EF      0.00e >EF  Err=0.0D+00
 GapD=    0.511 DampG=2.000 DampE=0.500 DampFc=1.0000 IDamp=-1.
 RMSDP=4.78D-03 MaxDP=1.05D-01 DE=-4.50D-01 OVMax= 2.78D-02

 Cycle   4  Pass 1  IDiag  1:
 Density matrix breaks symmetry, PCut= 1.00D-04
 Density matrix has no symmetry -- integrals replicated.
 E= -1.16835658176063     Delta-E=       -0.006639732926 Rises=F Damp=F AM=F Ri=F Fa=F
 DIIS: error= 1.36D-02 at cycle   4 NSaved=   4.
 NSaved= 4 IEnMin= 4 EnMin= -1.16835658176063     IErMin= 4 ErrMin= 1.36D-02
 ErrMax= 1.36D-02  0.00D+00 EMaxC= 1.00D+00 BMatC= 1.64D-03 BMatP= 5.08D-03
 Rises=F IDIUse=1 WtCom= 1.00D+00 WtEn= 0.00D+00
 Coeff-Com: -0.268D+00 0.282D+00-0.126D+01 0.224D+01
 Coeff:     -0.268D+00 0.282D+00-0.126D+01 0.224D+01
 Gap=     0.535 Goal=     0.100 Shift=    0.000
 T= 1721. Gap= 0.536 NK=0 IS=    2 IE=   46 IFin=    1
          NO(<0.9)=   0  NV(>0.1)=   0      1.00e < EF      0.00e >EF  Err=0.0D+00
 GapD=    0.535 DampG=2.000 DampE=0.500 DampFc=1.0000 IDamp=-1.
 RMSDP=4.73D-03 MaxDP=8.85D-02 DE=-6.64D-03 OVMax= 3.76D-02

 Cycle   5  Pass 1  IDiag  1:
 Density matrix breaks symmetry, PCut= 1.00D-04
 Density matrix has no symmetry -- integrals replicated.
 E= -1.17157218830132     Delta-E=       -0.003215606541 Rises=F Damp=F AM=F Ri=F Fa=F
 DIIS: error= 1.31D-03 at cycle   5 NSaved=   5.
 NSaved= 5 IEnMin= 5 EnMin= -1.17157218830132     IErMin= 5 ErrMin= 1.31D-03
 ErrMax= 1.31D-03  0.00D+00 EMaxC= 1.00D+00 BMatC= 1.15D-05 BMatP= 1.64D-03
 Rises=F IDIUse=1 WtCom= 1.00D+00 WtEn= 0.00D+00
 Coeff-Com: -0.887D-01 0.107D+00 0.178D+00-0.405D+00 0.121D+01
 Coeff:     -0.887D-01 0.107D+00 0.178D+00-0.405D+00 0.121D+01
 Gap=     0.536 Goal=     0.100 Shift=    0.000
 T=  975. Gap= 0.536 NK=0 IS=    2 IE=   46 IFin=    1
          NO(<0.9)=   0  NV(>0.1)=   0      1.00e < EF      0.00e >EF  Err=0.0D+00
 GapD=    0.536 DampG=2.000 DampE=1.000 DampFc=2.0000 IDamp=-1.
 RMSDP=2.92D-04 MaxDP=4.22D-03 DE=-3.22D-03 OVMax= 2.11D-03

 Cycle   6  Pass 1  IDiag  1:
 Density matrix breaks symmetry, PCut= 1.00D-04
 Density matrix has no symmetry -- integrals replicated.
 E= -1.17158547036082     Delta-E=       -0.000013282059 Rises=F Damp=F AM=F Ri=F Fa=F
 DIIS: error= 4.77D-04 at cycle   6 NSaved=   6.
 NSaved= 6 IEnMin= 6 EnMin= -1.17158547036082     IErMin= 6 ErrMin= 4.77D-04
 ErrMax= 4.77D-04  0.00D+00 EMaxC= 1.00D+00 BMatC= 1.58D-06 BMatP= 1.15D-05
 Rises=F IDIUse=1 WtCom= 1.00D+00 WtEn= 0.00D+00
 Coeff-Com:  0.135D-02-0.687D-03 0.147D-01-0.682D-01 0.258D+00 0.794D+00
 Coeff:      0.135D-02-0.687D-03 0.147D-01-0.682D-01 0.258D+00 0.794D+00
 Gap=     0.536 Goal=     0.100 Shift=    0.000
 RMSDP=1.07D-04 MaxDP=1.43D-03 DE=-1.33D-05 OVMax= 1.21D-03

 Cycle   7  Pass 1  IDiag  1:
 Density matrix breaks symmetry, PCut= 1.00D-04
 Density matrix has no symmetry -- integrals replicated.
 E= -1.17158891864587     Delta-E=       -0.000003448285 Rises=F Damp=F AM=F Ri=F Fa=F
 DIIS: error= 2.57D-05 at cycle   7 NSaved=   7.
 NSaved= 7 IEnMin= 7 EnMin= -1.17158891864587     IErMin= 7 ErrMin= 2.57D-05
 ErrMax= 2.57D-05  0.00D+00 EMaxC= 1.00D+00 BMatC= 4.19D-09 BMatP= 1.58D-06
 Rises=F IDIUse=1 WtCom= 1.00D+00 WtEn= 0.00D+00
 Coeff-Com:  0.203D-03-0.199D-03-0.549D-02 0.132D-01-0.119D-01-0.110D+00
 Coeff-Com:  0.111D+01
 Coeff:      0.203D-03-0.199D-03-0.549D-02 0.132D-01-0.119D-01-0.110D+00
 Coeff:      0.111D+01
 Gap=     0.535 Goal=     0.100 Shift=    0.000
 RMSDP=1.27D-05 MaxDP=1.58D-04 DE=-3.45D-06 OVMax= 8.40D-05

 Cycle   8  Pass 1  IDiag  1:
 E= -1.17158915701141     Delta-E=       -0.000000238366 Rises=F Damp=F AM=F Ri=F Fa=F
 DIIS: error= 1.03D-06 at cycle   8 NSaved=   8.
 NSaved= 8 IEnMin= 8 EnMin= -1.17158915701141     IErMin= 8 ErrMin= 1.03D-06
 ErrMax= 1.03D-06  0.00D+00 EMaxC= 1.00D+00 BMatC= 5.50D-12 BMatP= 4.19D-09
 Rises=F IDIUse=1 WtCom= 1.00D+00 WtEn= 0.00D+00
 Coeff-Com:  0.233D-04-0.306D-04 0.525D-03-0.131D-02 0.146D-02 0.113D-01
 Coeff-Com: -0.127D+00 0.112D+01
 Coeff:      0.233D-04-0.306D-04 0.525D-03-0.131D-02 0.146D-02 0.113D-01
 Coeff:     -0.127D+00 0.112D+01
 Gap=     0.535 Goal=     0.100 Shift=    0.000
 RMSDP=1.77D-06 MaxDP=2.27D-05 DE=-2.38D-07 OVMax= 3.75D-06

 Cycle   9  Pass 1  IDiag  1:
 E= -1.17158895289601     Delta-E=        0.000000204115 Rises=F Damp=F AM=F Ri=F Fa=F
 DIIS: error= 2.71D-07 at cycle   9 NSaved=   9.
 NSaved= 9 IEnMin= 8 EnMin= -1.17158915701141     IErMin= 9 ErrMin= 2.71D-07
 ErrMax= 2.71D-07  0.00D+00 EMaxC= 1.00D+00 BMatC= 2.96D-13 BMatP= 5.50D-12
 Rises=F IDIUse=1 WtCom= 1.00D+00 WtEn= 0.00D+00
 Coeff-Com: -0.313D-05 0.364D-05-0.737D-04 0.195D-03-0.328D-03-0.131D-02
 Coeff-Com:  0.199D-01-0.162D+00 0.114D+01
 Coeff:     -0.313D-05 0.364D-05-0.737D-04 0.195D-03-0.328D-03-0.131D-02
 Coeff:      0.199D-01-0.162D+00 0.114D+01
 Gap=     0.535 Goal=     0.100 Shift=    0.000
 RMSDP=1.63D-07 MaxDP=2.02D-06 DE= 2.04D-07 OVMax= 6.80D-07

 Cycle  10  Pass 1  IDiag  1:
 E= -1.17158893895318     Delta-E=        0.000000013943 Rises=F Damp=F AM=F Ri=F Fa=F
 DIIS: error= 1.18D-08 at cycle  10 NSaved=  10.
 NSaved=10 IEnMin= 8 EnMin= -1.17158915701141     IErMin=10 ErrMin= 1.18D-08
 ErrMax= 1.18D-08  0.00D+00 EMaxC= 1.00D+00 BMatC= 1.25D-15 BMatP= 2.96D-13
 Rises=F IDIUse=1 WtCom= 1.00D+00 WtEn= 0.00D+00
 Coeff-Com: -0.151D-06 0.143D-06 0.118D-06-0.759D-06 0.209D-05 0.837D-05
 Coeff-Com: -0.351D-03 0.254D-02 0.280D-01 0.970D+00
 Coeff:     -0.151D-06 0.143D-06 0.118D-06-0.759D-06 0.209D-05 0.837D-05
 Coeff:     -0.351D-03 0.254D-02 0.280D-01 0.970D+00
 Gap=     0.535 Goal=     0.100 Shift=    0.000
 RMSDP=2.42D-08 MaxDP=3.03D-07 DE= 1.39D-08 OVMax= 4.47D-08

 Cycle  11  Pass 1  IDiag  1:
 E= -1.17158893082284     Delta-E=        0.000000008130 Rises=F Damp=F AM=F Ri=F Fa=F
 DIIS: error= 1.24D-09 at cycle  11 NSaved=  11.
 NSaved=11 IEnMin= 8 EnMin= -1.17158915701141     IErMin=11 ErrMin= 1.24D-09
 ErrMax= 1.24D-09  0.00D+00 EMaxC= 1.00D+00 BMatC= 9.09D-18 BMatP= 1.25D-15
 Rises=F IDIUse=1 WtCom= 1.00D+00 WtEn= 0.00D+00
 Coeff-Com: -0.109D-07 0.134D-07-0.993D-07 0.458D-06-0.185D-05-0.409D-05
 Coeff-Com:  0.727D-04-0.171D-03-0.540D-02-0.261D+00 0.127D+01
 Coeff:     -0.109D-07 0.134D-07-0.993D-07 0.458D-06-0.185D-05-0.409D-05
 Coeff:      0.727D-04-0.171D-03-0.540D-02-0.261D+00 0.127D+01
 Gap=     0.535 Goal=     0.100 Shift=    0.000
 RMSDP=9.44D-10 MaxDP=1.20D-08 DE= 8.13D-09 OVMax= 5.25D-09

 Cycle  12  Pass 1  IDiag  1:
 E= -1.17158893064281     Delta-E=        0.000000000180 Rises=F Damp=F AM=F Ri=F Fa=F
 DIIS: error= 1.29D-10 at cycle  12 NSaved=  12.
 NSaved=12 IEnMin= 8 EnMin= -1.17158915701141     IErMin=12 ErrMin= 1.29D-10
 ErrMax= 1.29D-10  0.00D+00 EMaxC= 1.00D+00 BMatC= 8.86D-20 BMatP= 9.09D-18
 Rises=F IDIUse=1 WtCom= 1.00D+00 WtEn= 0.00D+00
 Coeff-Com: -0.996D-09 0.135D-08 0.936D-08-0.117D-07-0.373D-07 0.101D-07
 Coeff-Com:  0.209D-05-0.885D-04 0.137D-04 0.220D-03 0.438D-01 0.956D+00
 Coeff:     -0.996D-09 0.135D-08 0.936D-08-0.117D-07-0.373D-07 0.101D-07
 Coeff:      0.209D-05-0.885D-04 0.137D-04 0.220D-03 0.438D-01 0.956D+00
 Gap=     0.535 Goal=     0.100 Shift=    0.000
 RMSDP=7.84D-11 MaxDP=9.69D-10 DE= 1.80D-10 OVMax= 2.32D-10

 SCF Done:  E(RCAM-B3LYP) =  -1.17158893064     A.U. after   12 cycles
            NFock= 12  Conv=0.78D-10     -V/T= 2.0363
 KE=           1.130532 PE=          -3.633119 EE=           0.615894
 Leave Link  502 at Sat Aug  2 15:34:18 2025, MaxMem= 12348030976 cpu:              16.8 elap:               0.4
 (Enter /home/hhratchian/gaussian/gdv-20250101-j30+/gdv/l601.exe)
 Copying SCF densities to generalized density rwf, IOpCl= 0 IROHF=0.
 
 **********************************************************************
 
               Population analysis using the SCF Density.
 
 **********************************************************************
 
 Orbital symmetries:
       Occupied  (SGG)
       Virtual   (SGU) (SGG) (SGU) (PIU) (PIU) (SGG) (PIG) (PIG)
                 (SGG) (SGU) (SGU) (DLTG) (DLTG) (PIG) (PIG) (PIU)
                 (PIU) (SGG) (SGU) (DLTU) (DLTU) (PIU) (PIU) (SGG)
                 (PIG) (PIG) (SGU) (SGU) (SGG) (PIU) (PIU) (DLTG)
                 (DLTG) (SGG) (DLTU) (DLTU) (PIU) (PIU) (PIG) (PIG)
                 (SGU) (PIG) (PIG) (SGG) (SGU)
 The electronic state is 1-SGG.
 Alpha  occ. eigenvalues --       -0.50079
 Alpha virt. eigenvalues --        0.03463       0.03555       0.13863       0.15267       0.15267
 Alpha virt. eigenvalues --        0.24677       0.26170       0.26170       0.35521       0.36794
 Alpha virt. eigenvalues --        0.65103       0.70278       0.70278       0.80934       0.80934
 Alpha virt. eigenvalues --        0.81335       0.81335       0.81955       0.96255       0.97066
 Alpha virt. eigenvalues --        0.97066       0.98588       0.98588       1.38879       1.80661
 Alpha virt. eigenvalues --        1.80661       2.00045       2.38628       2.69587       3.37875
 Alpha virt. eigenvalues --        3.37875       3.39616       3.39616       3.90455       4.19102
 Alpha virt. eigenvalues --        4.19102       4.20220       4.20220       4.27663       4.27663
 Alpha virt. eigenvalues --        4.96192       5.52399       5.52399       5.72371       6.77579
          Condensed to atoms (all electrons):
               1          2
     1  H    0.582167   0.417833
     2  H    0.417833   0.582167
 Mulliken charges:
               1
     1  H    0.000000
     2  H    0.000000
 Sum of Mulliken charges=   0.00000
 Mulliken charges with hydrogens summed into heavy atoms:
               1
 Electronic spatial extent (au):  <R**2>=              5.2926
 Charge=              0.0000 electrons
 Dipole moment (field-independent basis, Debye):
    X=             -0.0000    Y=             -0.0000    Z=              0.0000  Tot=              0.0000
 Quadrupole moment (field-independent basis, Debye-Ang):
   XX=             -2.1383   YY=             -2.1383   ZZ=             -1.5269
   XY=              0.0000   XZ=             -0.0000   YZ=              0.0000
 Traceless Quadrupole moment (field-independent basis, Debye-Ang):
   XX=             -0.2038   YY=             -0.2038   ZZ=              0.4076
   XY=              0.0000   XZ=             -0.0000   YZ=              0.0000
 Octapole moment (field-independent basis, Debye-Ang**2):
  XXX=             -0.0000  YYY=             -0.0000  ZZZ=             -0.0000  XYY=             -0.0000
  XXY=             -0.0000  XXZ=             -0.0000  XZZ=             -0.0000  YZZ=             -0.0000
  YYZ=             -0.0000  XYZ=             -0.0000
 Hexadecapole moment (field-independent basis, Debye-Ang**3):
 XXXX=             -2.2658 YYYY=             -2.2658 ZZZZ=             -2.9673 XXXY=              0.0000
 XXXZ=              0.0000 YYYX=              0.0000 YYYZ=              0.0000 ZZZX=              0.0000
 ZZZY=              0.0000 XXYY=             -0.7553 XXZZ=             -0.8922 YYZZ=             -0.8922
 XXYZ=              0.0000 YYXZ=              0.0000 ZZXY=              0.0000
 N-N=           0.715104 E-N=          -3.633119  KE=           1.130532
 Symmetry AG   KE=           1.130532
 Symmetry B1G  KE=           0.000000
 Symmetry B2G  KE=           0.000000
 Symmetry B3G  KE=           0.000000
 Symmetry AU   KE=           0.000000
 Symmetry B1U  KE=          -0.000000
 Symmetry B2U  KE=           0.000000
 Symmetry B3U  KE=           0.000000
 No NMR shielding tensors so no spin-rotation constants.
 Leave Link  601 at Sat Aug  2 15:34:18 2025, MaxMem= 12348030976 cpu:               4.8 elap:               0.1
 (Enter /home/hhratchian/gaussian/gdv-20250101-j30+/gdv/l801.exe)
 DoSCS=F DFT=T ScalE2(SS,OS)=  1.000000  1.000000
 Range of M.O.s used for correlation:     1    46
 NBasis=    46 NAE=     1 NBE=     1 NFC=     0 NFV=     0
 NROrb=     46 NOA=     1 NOB=     1 NVA=    45 NVB=    45

 **** Warning!!: The largest alpha MO coefficient is  0.60490444D+02

 Leave Link  801 at Sat Aug  2 15:34:18 2025, MaxMem= 12348030976 cpu:               0.1 elap:               0.0
 (Enter /home/hhratchian/gaussian/gdv-20250101-j30+/gdv/l914.exe)
 RHF ground state
 Doing stability rather than CIS.
 DoSCS=F DFT=T ScalE2(SS,OS)=  1.000000  1.000000
   ScalD2(USS,UOS,TSS,TOS,w)=  1.000000  1.000000  1.000000  1.000000  1.000000
 Keep R1 and R2 ints in memory in symmetry-blocked form, NReq=89976509.
 FoFCou: FMM=F IPFlag=           0 FMFlag=           0 FMFlg1=           0
         NFxFlg=           0 DoJE=F BraDBF=F KetDBF=F FulRan=T
         wScrn=  0.000000 ICntrl=       600 IOpCl=  0 I1Cent=           0 NGrid=           0
         NMat0=    1 NMatS0=   1081 NMatT0=    0 NMatD0=    1 NMtDS0=    0 NMtDT0=    0
 Petite list used in FoFCou.
 MDV= 12348030976 DFT=T IDoStb=1 Mixed=T DoRPA=F DoScal=F NonHer=F
 Making orbital integer symmetry assigments:
 Orbital symmetries:
       Occupied  (SGG)
       Virtual   (SGU) (SGG) (SGU) (PIU) (PIU) (SGG) (PIG) (PIG)
                 (SGG) (SGU) (SGU) (DLTG) (DLTG) (PIG) (PIG) (PIU)
                 (PIU) (SGG) (SGU) (DLTU) (DLTU) (PIU) (PIU) (SGG)
                 (PIG) (PIG) (SGU) (SGU) (SGG) (PIU) (PIU) (DLTG)
                 (DLTG) (SGG) (DLTU) (DLTU) (PIU) (PIU) (PIG) (PIG)
                 (SGU) (PIG) (PIG) (SGG) (SGU)
    48 initial guesses have been made.
 Convergence on wavefunction:    0.001000000000000
 Davidson Disk Diagonalization:  ConvIn= 1.00D-03 SkipCon=T Conv= 1.00D-03.
 Max sub-space:   180 initial roots:    48 roots to seek:     1 dimension of matrix:           90
 Iteration     1 Dimension    48 NMult     0 NNew     48
 CISAX will form    48 AO SS matrices at one time.
 NMat=    48 NSing=    24 JSym2X= 2.
 New state      1 was old state      6
 Excitation Energies [eV] at current iteration:
 Root      1 :     8.680001684088715
 Root      2 :    11.029331138600790
 Root      3 :    11.901548987256128
 Root      4 :    12.146982133547867
 Root      5 :    12.182944072356729
 Root      6 :    12.182944072356767
 Root      7 :    12.972820749273939
 Root      8 :    14.334217119673657
 Root      9 :    14.334217119673665
 Root     10 :    15.412252892949883
 Root     11 :    16.003607567946766
 Root     12 :    16.713658597237441
 Root     13 :    16.713658597237590
 Root     14 :    16.732889412582992
 Root     15 :    16.863926876124495
 Root     16 :    16.863926876124626
 Root     17 :    17.884535493336173
 Root     18 :    18.625615278084364
 Root     19 :    21.436218556476643
 Root     20 :    21.982113629620429
 Root     21 :    25.276094136715511
 Root     22 :    26.334680727710325
 Root     23 :    26.334680728599764
 Root     24 :    26.993169386304036
 Root     25 :    26.993169386304075
 Root     26 :    27.397516491615498
 Root     27 :    27.397516492752040
 Root     28 :    29.171782715886646
 Root     29 :    29.665442917386969
 Root     30 :    29.992538243871934
 Root     31 :    29.992538243872485
 Root     32 :    30.952009678730093
 Root     33 :    30.952009678730551
 Root     34 :    31.147368610136503
 Root     35 :    33.498492387475430
 Root     36 :    33.498492387475444
 Root     37 :    34.122432835909159
 Root     38 :    34.289906285618208
 Root     39 :    34.289906289031009
 Root     40 :    34.527234596132942
 Root     41 :    34.527234596133212
 Root     42 :    34.625916297309914
 Root     43 :    34.625916300963453
 Root     44 :    35.040429963659335
 Root     45 :    35.040429963659513
 Root     46 :    36.909754168561484
 Root     47 :    42.839778597545568
 Root     48 :    49.090546804532394
 Iteration     2 Dimension    86 NMult    48 NNew     38
 CISAX will form    38 AO SS matrices at one time.
 NMat=    38 NSing=    19 JSym2X= 2.
 Root      1 not converged, maximum delta is    0.023259817171360
 Excitation Energies [eV] at current iteration:
 Root      1 :     8.594256604689667   Change is   -0.085745079399049
 Root      2 :    11.016234232446177   Change is   -0.013096906154612
 Root      3 :    11.896041332494310   Change is   -0.005507654761818
 Root      4 :    12.140048473411071   Change is   -0.006933660136797
 Root      5 :    12.172795415189471   Change is   -0.010148657167259
 Root      6 :    12.172795415189535   Change is   -0.010148657167231
 Root      7 :    12.953559354244224   Change is   -0.019261395029716
 Root      8 :    14.319123344812050   Change is   -0.015093774861615
 Root      9 :    14.319123344812075   Change is   -0.015093774861581
 Root     10 :    15.383967540681725   Change is   -0.028285352268158
 Root     11 :    15.990063457380234   Change is   -0.013544110566531
 Root     12 :    16.713334869275112   Change is   -0.000323727962329
 Root     13 :    16.713334869275197   Change is   -0.000323727962392
 Root     14 :    16.730190450800968   Change is   -0.002698961782024
 Root     15 :    16.852899394449704   Change is   -0.011027481674790
 Root     16 :    16.852899394449839   Change is   -0.011027481674787
 Root     17 :    17.844561421643782   Change is   -0.039974071692393
 Root     18 :    18.557042673351688   Change is   -0.068572604732677
 Root     19 :    21.379990242767949   Change is   -0.056228313708694
 Root     20 :    21.927204045923343   Change is   -0.054909583697085
 Root     21 :    25.119291924184772   Change is   -0.156802212530740
 Root     22 :    26.291601228119376   Change is   -0.043079499590950
 Root     23 :    26.291601228544248   Change is   -0.043079500055515
 Root     24 :    26.857561431632092   Change is   -0.135607954671980
 Root     25 :    26.857561431632124   Change is   -0.135607954671914
 Root     26 :    27.395197765218345   Change is   -0.002318726397155
 Root     27 :    27.395197766271913   Change is   -0.002318726480126
 Root     28 :    29.080826440452608   Change is   -0.090956275434038
 Root     29 :    29.581350486229059   Change is   -0.084092431157909
 Root     30 :    29.819728553975775   Change is   -0.172809689896158
 Root     31 :    29.819728553976272   Change is   -0.172809689896212
 Root     32 :    30.934795283934285   Change is   -0.017214394795806
 Root     33 :    30.934795283934744   Change is   -0.017214394795806
 Root     34 :    31.140527645303930   Change is   -0.006840964832574
 Root     35 :    33.453150257791997   Change is   -0.045342129683434
 Root     36 :    33.453150257792018   Change is   -0.045342129683428
 Root     37 :    33.951791405989276   Change is   -0.170641429919880
 Root     38 :    34.269257369579577   Change is   -0.020648916038632
 Root     39 :    34.269257372994687   Change is   -0.020648916036324
 Root     40 :    34.504206805319328   Change is   -0.023027790813621
 Root     41 :    34.504206805319477   Change is   -0.023027790813736
 Root     42 :    34.618193132532419   Change is   -0.007723164777501
 Root     43 :    34.618193136176970   Change is   -0.007723164786486
 Root     44 :    35.030479717196457   Change is   -0.009950246462878
 Root     45 :    35.030479717196606   Change is   -0.009950246462908
 Root     46 :    36.786910534010417   Change is   -0.122843634551066
 Root     47 :    42.667961727886478   Change is   -0.171816869659091
 Root     48 :    49.000305144088912   Change is   -0.090241660443484
 Convergence achieved on expansion vectors.
 1PDM for each excited state written to RWF  633
 Ground to excited state transition densities written to RWF  633

 ***********************************************************************
 Stability analysis using <AA,BB:AA,BB> singles matrix:
 ***********************************************************************

 Eigenvectors of the stability matrix:
 
 Eigenvector   1:      Triplet-SGU  Eigenvalue= 0.3158331  <S**2>=2.000
       1 ->  2        -0.43925
       1 ->  4         0.49227
       1 -> 11        -0.21064
       1 -> 12         0.12695
 
 Eigenvector   2:      Triplet-SGG  Eigenvalue= 0.4048392  <S**2>=2.000
       1 ->  3         0.67996
       1 ->  7         0.11505
       1 -> 10        -0.15309
 
 Eigenvector   3:      Singlet-SGU  Eigenvalue= 0.4371715  <S**2>=0.000
       1 ->  2         0.70210
 
 Eigenvector   4:      Singlet-SGG  Eigenvalue= 0.4461386  <S**2>=0.000
       1 ->  3         0.70444
 
 Eigenvector   5:      Triplet-PIU  Eigenvalue= 0.4473420  <S**2>=2.000
       1 ->  5         0.20020
       1 ->  6         0.66885
       1 -> 17         0.10426
 
 Eigenvector   6:      Triplet-PIU  Eigenvalue= 0.4473420  <S**2>=2.000
       1 ->  5         0.66885
       1 ->  6        -0.20020
       1 -> 18         0.10426
 The wavefunction is stable under the perturbations considered.
 Leave Link  914 at Sat Aug  2 15:34:19 2025, MaxMem= 12348030976 cpu:              29.6 elap:               0.7
 (Enter /home/hhratchian/gaussian/gdv-20250101-j30+/gdv/l508.exe)
 The wavefunction is already stable.
 Leave Link  508 at Sat Aug  2 15:34:19 2025, MaxMem= 12348030976 cpu:               0.1 elap:               0.0
 (Enter /home/hhratchian/gaussian/gdv-20250101-j30+/gdv/l601.exe)
 Copying SCF densities to generalized density rwf, IOpCl= 0 IROHF=0.
 
 **********************************************************************
 
               Population analysis using the SCF Density.
 
 **********************************************************************
 
 Orbital symmetries:
       Occupied  (SGG)
       Virtual   (SGU) (SGG) (SGU) (PIU) (PIU) (SGG) (PIG) (PIG)
                 (SGG) (SGU) (SGU) (DLTG) (DLTG) (PIG) (PIG) (PIU)
                 (PIU) (SGG) (SGU) (DLTU) (DLTU) (PIU) (PIU) (SGG)
                 (PIG) (PIG) (SGU) (SGU) (SGG) (PIU) (PIU) (DLTG)
                 (DLTG) (SGG) (DLTU) (DLTU) (PIU) (PIU) (PIG) (PIG)
                 (SGU) (PIG) (PIG) (SGG) (SGU)
 The electronic state is 1-SGG.
 Alpha  occ. eigenvalues --       -0.50079
 Alpha virt. eigenvalues --        0.03463       0.03555       0.13863       0.15267       0.15267
 Alpha virt. eigenvalues --        0.24677       0.26170       0.26170       0.35521       0.36794
 Alpha virt. eigenvalues --        0.65103       0.70278       0.70278       0.80934       0.80934
 Alpha virt. eigenvalues --        0.81335       0.81335       0.81955       0.96255       0.97066
 Alpha virt. eigenvalues --        0.97066       0.98588       0.98588       1.38879       1.80661
 Alpha virt. eigenvalues --        1.80661       2.00045       2.38628       2.69587       3.37875
 Alpha virt. eigenvalues --        3.37875       3.39616       3.39616       3.90455       4.19102
 Alpha virt. eigenvalues --        4.19102       4.20220       4.20220       4.27663       4.27663
 Alpha virt. eigenvalues --        4.96192       5.52399       5.52399       5.72371       6.77579
          Condensed to atoms (all electrons):
               1          2
     1  H    0.582167   0.417833
     2  H    0.417833   0.582167
 Mulliken charges:
               1
     1  H    0.000000
     2  H    0.000000
 Sum of Mulliken charges=   0.00000
 Mulliken charges with hydrogens summed into heavy atoms:
               1
 Electronic spatial extent (au):  <R**2>=              5.2926
 Charge=              0.0000 electrons
 Dipole moment (field-independent basis, Debye):
    X=             -0.0000    Y=             -0.0000    Z=              0.0000  Tot=              0.0000
 Quadrupole moment (field-independent basis, Debye-Ang):
   XX=             -2.1383   YY=             -2.1383   ZZ=             -1.5269
   XY=              0.0000   XZ=             -0.0000   YZ=              0.0000
 Traceless Quadrupole moment (field-independent basis, Debye-Ang):
   XX=             -0.2038   YY=             -0.2038   ZZ=              0.4076
   XY=              0.0000   XZ=             -0.0000   YZ=              0.0000
 Octapole moment (field-independent basis, Debye-Ang**2):
  XXX=             -0.0000  YYY=             -0.0000  ZZZ=             -0.0000  XYY=             -0.0000
  XXY=             -0.0000  XXZ=             -0.0000  XZZ=             -0.0000  YZZ=             -0.0000
  YYZ=             -0.0000  XYZ=             -0.0000
 Hexadecapole moment (field-independent basis, Debye-Ang**3):
 XXXX=             -2.2658 YYYY=             -2.2658 ZZZZ=             -2.9673 XXXY=              0.0000
 XXXZ=              0.0000 YYYX=              0.0000 YYYZ=              0.0000 ZZZX=              0.0000
 ZZZY=              0.0000 XXYY=             -0.7553 XXZZ=             -0.8922 YYZZ=             -0.8922
 XXYZ=              0.0000 YYXZ=              0.0000 ZZXY=              0.0000
 N-N=           0.715104 E-N=          -3.633119  KE=           1.130532
 Symmetry AG   KE=           1.130532
 Symmetry B1G  KE=           0.000000
 Symmetry B2G  KE=           0.000000
 Symmetry B3G  KE=           0.000000
 Symmetry AU   KE=           0.000000
 Symmetry B1U  KE=          -0.000000
 Symmetry B2U  KE=           0.000000
 Symmetry B3U  KE=           0.000000
 No NMR shielding tensors so no spin-rotation constants.
 Leave Link  601 at Sat Aug  2 15:34:19 2025, MaxMem= 12348030976 cpu:               4.9 elap:               0.1
 (Enter /home/hhratchian/gaussian/gdv-20250101-j30+/gdv/local/l9999.exe)
 Unable to Open any file for archive entry.
 1\1\GINC-HMNODE006\Stability\RCAM-B3LYP\GenECP\H2\AABOUTAKA\02-Aug-202
 5\0\\#P CAM-B3LYP/genecp SCF=(fermi,novaracc) Guess=Mix Stable=Opt\\In
 itial Stability Check for H2\\0,1\H,0,0.,0.,0.\H,0,0.,0.,0.74\\Version
 =ES64L-GDVRevJ.30+\State=1-SGG\HF=-1.1715889\RMSD=7.836e-11\Dipole=0.,
 0.,0.\Quadrupole=-0.1515076,-0.1515076,0.3030151,0.,0.,0.\PG=D*H [C*(H
 1.H1)]\\@
 The archive entry for this job was punched.


 MY GROUP MEETINGS AREN'T VERY STRUCTURED.
     -- PROF. M. S. GORDON, OCT. 5, 1984
 Job cpu time:       0 days  0 hours  1 minutes 17.7 seconds.
 Elapsed time:       0 days  0 hours  0 minutes  2.1 seconds.
 File lengths (MBytes):  RWF=     22 Int=      0 D2E=      0 Chk=      2 Scr=      2
 Normal termination of Gaussian DV at Sat Aug  2 15:34:19 2025.
 Initial command:
 /home/hhratchian/gaussian/gdv-20250101-j30+/gdv/local/l1.exe "/scratch/aaboutaka/1562801/Gau-70688.inp" -scrdir="/scratch/aaboutaka/1562801/"
 Default is to use a total of  56 processors:
                               56 via shared-memory
                                1 via Linda
 Entering Link 1 = /home/hhratchian/gaussian/gdv-20250101-j30+/gdv/local/l1.exe PID=     71460.
  
 Copyright (c) 1988-2024, Gaussian, Inc.  All Rights Reserved.
  
 This is the private, development version of
 the Gaussian(R) DV system of programs. It is based on
 the Gaussian(R) 16 system (copyright 2016, Gaussian, Inc.),
 the Gaussian(R) 09 system (copyright 2009, Gaussian, Inc.),
 the Gaussian(R) 03 system (copyright 2003, Gaussian, Inc.),
 the Gaussian(R) 98 system (copyright 1998, Gaussian, Inc.),
 the Gaussian(R) 94 system (copyright 1995, Gaussian, Inc.),
 the Gaussian 92(TM) system (copyright 1992, Gaussian, Inc.),
 the Gaussian 90(TM) system (copyright 1990, Gaussian, Inc.),
 the Gaussian 88(TM) system (copyright 1988, Gaussian, Inc.),
 the Gaussian 86(TM) system (copyright 1986, Carnegie Mellon
 University), and the Gaussian 82(TM) system (copyright 1983,
 Carnegie Mellon University). Gaussian is a federally registered
 trademark of Gaussian, Inc.
  
 This software contains proprietary and confidential information,
 including trade secrets, belonging to Gaussian, Inc.
  
 This software is provided under written license and may be
 used, copied, transmitted, or stored only in accord with that
 written license.
  
 The following legend is applicable only to US Government
 contracts under FAR:
  
                    RESTRICTED RIGHTS LEGEND
  
 Use, reproduction and disclosure by the US Government is
 subject to restrictions as set forth in subparagraphs (a)
 and (c) of the Commercial Computer Software - Restricted
 Rights clause in FAR 52.227-19.
  
 Gaussian, Inc.
 340 Quinnipiac St., Bldg. 40, Wallingford CT 06492
  
  
 ---------------------------------------------------------------
 Warning -- This program may not be used in any manner that
 competes with the business of Gaussian, Inc. or will provide
 assistance to any competitor of Gaussian, Inc.  The licensee
 of this program is prohibited from giving any competitor of
 Gaussian, Inc. access to this program.  By using this program,
 the user acknowledges that Gaussian, Inc. is engaged in the
 business of creating and licensing software in the field of
 computational chemistry and represents and warrants to the
 licensee that it is not a competitor of Gaussian, Inc. and that
 it will not use this program in any manner prohibited above.
 ---------------------------------------------------------------
  

 Cite this work as:
 Gaussian Development Version, Revision J.30+,
 M. J. Frisch, G. W. Trucks, G. Scalmani, J. R. Cheeseman, X. Li, 
 J. Bloino, B. G. Janesko, A. V. Marenich, J. Zheng, F. Lipparini, 
 A. Jenkins, A. Liu, H. Liu, H. B. Schlegel, G. E. Scuseria, 
 M. A. Robb, V. Barone, G. A. Petersson, H. Nakatsuji, B. Mennucci, 
 C. Adamo, N. Rega, M. Caricato, H. P. Hratchian, J. V. Ortiz, 
 F. Pawlowski, A. F. Izmaylov, H. Hu, C. Liao, J. L. Sonnenberg, 
 D. Williams-Young, F. Ding, R. Gomperts, F. Egidi, J. Goings, 
 B. Peng, A. Petrone, T. Henderson, D. Ranasinghe, V. G. Zakrzewski, 
 J. Gao, G. Zheng, W. Liang, M. Hada, M. Ehara, K. Toyota, R. Fukuda, 
 J. Hasegawa, M. Ishida, T. Nakajima, Y. Honda, O. Kitao, H. Nakai, 
 T. Vreven, K. Throssell, J. A. Montgomery, Jr., J. E. Peralta, 
 F. Ogliaro, M. J. Bearpark, J. J. Heyd, E. N. Brothers, K. N. Kudin, 
 V. N. Staroverov, T. A. Keith, R. Kobayashi, J. Normand, 
 K. Raghavachari, A. P. Rendell, J. C. Burant, S. S. Iyengar, 
 M. Cossi, J. M. Millam, M. Klene, R. Cammi, R. L. Martin, O. Farkas, 
 J. B. Foresman, and D. J. Fox, Gaussian, Inc., Wallingford CT, 2024.
 
 *******************************************
 Gaussian DV:  ES64L-GDVRevJ.30+ 18-Dec-2024
                  2-Aug-2025 
 *******************************************
 %Chk=H2_CAMB3LYP_genecp.chk
 ----------------------------------------------------------------------
 #P CAM-B3LYP chkbasis Geom=AllCheck Guess=Read Opt Freq SCF=(fermi, no
 varacc) int=superfinegrid
 ----------------------------------------------------------------------
 1/18=20,19=15,26=5,29=7,38=1/1,3;
 2/9=110,12=2/2;
 3/5=7,6=2,11=2,14=-4,25=1,30=1,67=1,71=1,74=-40,75=-7,116=-2/1,2,3;
 4/5=1/1;
 5/5=2,22=13,38=6/2;
 6/7=2,8=2,9=2,10=2,28=1/1;
 7//1,2,3,16;
 1/18=20,19=15,26=5/3(2);
 2/9=110/2;
 99//99;
 2/9=110/2;
 3/5=7,6=1,11=2,14=-2,25=1,30=1,71=1,74=-40,75=-7,82=7,187=7/1,2,3;
 4/5=5,16=3,69=1/1;
 5/5=2,22=13,38=1/2;
 7//1,2,3,16;
 1/18=20,19=15,26=5/3(-5);
 2/9=110/2;
 6/7=2,8=2,9=2,10=2,19=2,28=1/1;
 99/9=1/99;
 Leave Link    1 at Sat Aug  2 15:34:19 2025, MaxMem=           0 cpu:               1.3 elap:               0.1
 (Enter /home/hhratchian/gaussian/gdv-20250101-j30+/gdv/local/l101.exe)
 
  Hrant - IAPOps =                         0
  Hrant - IAPOp1 =                         0
  Hrant - IAPOp2 =                         0
  Hrant - DoAP   =   F
 
 Structure from the checkpoint file:  "H2_CAMB3LYP_genecp.chk"
 ------------------------------
 Initial Stability Check for H2
 ------------------------------
 Charge =     0 Multiplicity =     1
 Z-Matrix found in chk file.
 H,0,0.,0.,0.
 H,0,0.,0.,0.74
 
 Recover connectivity data from disk.
 Initializing the GIC definitions file.
 ITRead=  0  0
 MicOpt= -1 -1
 NAtoms=      2 NQM=        2 NQMF=       0 NMMI=      0 NMMIF=      0
                NMic=       0 NMicF=      0.
                    Isotopes and Nuclear Properties:
 (Nuclear quadrupole moments (NQMom) in fm**2, nuclear magnetic moments (NMagM)
  in nuclear magnetons)

  Atom         1           2
 IAtWgt=           1           1
 AtmWgt=   1.0078250   1.0078250
 NucSpn=           1           1
 AtZEff=    1.000000    1.000000
 NQMom=    0.0000000   0.0000000
 NMagM=    2.7928460   2.7928460
 AtZNuc=   1.0000000   1.0000000
 Leave Link  101 at Sat Aug  2 15:34:23 2025, MaxMem= 12348030976 cpu:               3.8 elap:               3.4
 (Enter /home/hhratchian/gaussian/gdv-20250101-j30+/gdv/l103.exe)

 GradGradGradGradGradGradGradGradGradGradGradGradGradGradGradGradGradGrad
 Berny optimization.
 Initialization pass.
                           ----------------------------
                           !    Initial Parameters    !
                           ! (Angstroms and Degrees)  !
 --------------------------                            --------------------------
 ! Name  Definition              Value          Derivative Info.                !
 --------------------------------------------------------------------------------
 ! R1    R(1,2)                  0.74           estimate D2E/DX2                !
 --------------------------------------------------------------------------------
 Trust Radius=3.00D-01 FncErr=1.00D-07 GrdErr=1.00D-07 EigMax=2.50D+02 EigMin=1.00D-04
 Number of steps in this run=     20 maximum allowed number of steps=    100.
 GradGradGradGradGradGradGradGradGradGradGradGradGradGradGradGradGradGrad

 Leave Link  103 at Sat Aug  2 15:34:23 2025, MaxMem= 12348030976 cpu:               1.3 elap:               0.0
 (Enter /home/hhratchian/gaussian/gdv-20250101-j30+/gdv/l202.exe)
                          Input orientation:                          
 ---------------------------------------------------------------------
 Center     Atomic      Atomic             Coordinates (Angstroms)
 Number     Number       Type             X           Y           Z
 ---------------------------------------------------------------------
      1          1           0        0.000000    0.000000    0.000000
      2          1           0        0.000000    0.000000    0.740000
 ---------------------------------------------------------------------
 Stoichiometry    H2
 Framework group  D*H[C*(H.H)]
 Deg. of freedom     1
 Full point group                 D*H     NOp   8
 RotChk:  IX=0 Diff= 0.00D+00
 Largest Abelian subgroup         D2H     NOp   8
 Largest concise Abelian subgroup C2      NOp   2
                         Standard orientation:                         
 ---------------------------------------------------------------------
 Center     Atomic      Atomic             Coordinates (Angstroms)
 Number     Number       Type             X           Y           Z
 ---------------------------------------------------------------------
      1          1           0        0.000000    0.000000    0.370000
      2          1           0        0.000000    0.000000   -0.370000
 ---------------------------------------------------------------------
 Rotational constants (GHZ):           0.0000000        1831.4649542        1831.4649542
 Leave Link  202 at Sat Aug  2 15:34:23 2025, MaxMem= 12348030976 cpu:               2.7 elap:               0.1
 (Enter /home/hhratchian/gaussian/gdv-20250101-j30+/gdv/local/l301.exe)
 Basis read from chk: "H2_CAMB3LYP_genecp.chk" (5D, 7F)
 Pseudo-potential data read from chk file.
 There are    13 symmetry adapted cartesian basis functions of AG  symmetry.
 There are     2 symmetry adapted cartesian basis functions of B1G symmetry.
 There are     5 symmetry adapted cartesian basis functions of B2G symmetry.
 There are     5 symmetry adapted cartesian basis functions of B3G symmetry.
 There are     2 symmetry adapted cartesian basis functions of AU  symmetry.
 There are    13 symmetry adapted cartesian basis functions of B1U symmetry.
 There are     5 symmetry adapted cartesian basis functions of B2U symmetry.
 There are     5 symmetry adapted cartesian basis functions of B3U symmetry.
 There are    11 symmetry adapted basis functions of AG  symmetry.
 There are     2 symmetry adapted basis functions of B1G symmetry.
 There are     5 symmetry adapted basis functions of B2G symmetry.
 There are     5 symmetry adapted basis functions of B3G symmetry.
 There are     2 symmetry adapted basis functions of AU  symmetry.
 There are    11 symmetry adapted basis functions of B1U symmetry.
 There are     5 symmetry adapted basis functions of B2U symmetry.
 There are     5 symmetry adapted basis functions of B3U symmetry.
    46 basis functions,    54 primitive gaussians,    50 cartesian basis functions
     1 alpha electrons        1 beta electrons
       nuclear repulsion energy         0.7151043391 Hartrees.
 IExCor=   2004019 DFT=T Ex+Corr=CAM-B3LYP ScaHFX=  1.000000
 ScaDFX=  1.000000  1.000000  1.000000  0.810000  1.000000  0.000000
 ScaDFX=  0.000000  0.000000  0.000000  0.000000  0.000000  0.000000
 Grid=SuperFine IRanWt=     -1 IRanGd=            0 ICorTp=0 IEDCtl=  2004
 HFx  wShort=  0.000000 wLong=  0.330000 cFull=  0.190000 cShort=  0.000000 cLong=  0.460000
 DFx  wShort=  0.330000 wLong=  0.000000 cFull=  0.350000 cShort=  0.460000 cLong=  0.000000
 NAtoms=    2 NActive=    2 NUniq=    1 SFac= 4.00D+00 NAtFMM=   60 NAOKFM=F Big=F
 Integral buffers will be    131072 words long.
 Raffenetti 2 integral format.
 Two-electron integral symmetry is turned on.
 No density basis found on file 200724.
 Leave Link  301 at Sat Aug  2 15:34:23 2025, MaxMem= 12348030976 cpu:               1.3 elap:               0.1
 (Enter /home/hhratchian/gaussian/gdv-20250101-j30+/gdv/l302.exe)
 NPDir=0 NMtPBC=     1 NCelOv=     1 NCel=       1 NClECP=     1 NCelD=      1
         NCelK=      1 NCelE2=     1 NClLst=     1 CellRange=     0.0.
 One-electron integrals computed using PRISM.
 One-electron integral symmetry used in STVInt
   8 Symmetry operations used in ECPInt.
 ECPInt:  NShTT=     171 NPrTT=     259 LenC2=     172 LenP2D=     259.
 LDataN:  DoStor=T MaxTD1= 4 Len=   56
 NBasis=    46 RedAO= T EigKep=  5.38D-05  NBF=    11     2     5     5     2    11     5     5
 NBsUse=    46 1.00D-06 EigRej= -1.00D+00 NBFU=    11     2     5     5     2    11     5     5
 Precomputing XC quadrature grid using
 IXCGrd=   9 Grid=SuperFine IRanWt=          -1 IRanGd=           0 AccXCQ= 0.00D+00.
 Generated NRdTot=       0 NPtTot=      133144 NUsed=           0 NTot=          64
 NSgBfM=    50    50    50    50    50 MxSgAt=     2 MxSgA2=     2 SizInc=   0.000
 NMBTot=     1341 MaxBatPerAtom=      130 MaxMicBPerAtom=      677 NBfPt=             5370052.
 Leave Link  302 at Sat Aug  2 15:34:23 2025, MaxMem= 12348030976 cpu:               5.4 elap:               0.2
 (Enter /home/hhratchian/gaussian/gdv-20250101-j30+/gdv/l303.exe)
 DipDrv:  MaxL=1.
 Leave Link  303 at Sat Aug  2 15:34:23 2025, MaxMem= 12348030976 cpu:               0.3 elap:               0.0
 (Enter /home/hhratchian/gaussian/gdv-20250101-j30+/gdv/l401.exe)
 Initial guess from the checkpoint file:  "H2_CAMB3LYP_genecp.chk"
 B after Tr=     0.000000    0.000000    0.000000
         Rot=    1.000000    0.000000    0.000000    0.000000 Ang=   0.00 deg.
 AO Guess basis will be translated and rotated to current coordinates.
 JPrj=2 DoOrth=T DoCkMO=T.
 Initial guess orbital symmetries:
       Occupied  (SGG)
       Virtual   (SGU) (SGG) (SGU) (PIU) (PIU) (SGG) (PIG) (PIG)
                 (SGG) (SGU) (SGU) (DLTG) (DLTG) (PIG) (PIG) (PIU)
                 (PIU) (SGG) (SGU) (DLTU) (DLTU) (PIU) (PIU) (SGG)
                 (PIG) (PIG) (SGU) (SGU) (SGG) (PIU) (PIU) (DLTG)
                 (DLTG) (SGG) (DLTU) (DLTU) (PIU) (PIU) (PIG) (PIG)
                 (SGU) (PIG) (PIG) (SGG) (SGU)
 The electronic state of the initial guess is 1-SGG.
 Leave Link  401 at Sat Aug  2 15:34:23 2025, MaxMem= 12348030976 cpu:               2.4 elap:               0.1
 (Enter /home/hhratchian/gaussian/gdv-20250101-j30+/gdv/local/l502.exe)
 Keep R1 ints in memory in symmetry-blocked form, NReq=50390666.
 FoFCou: FMM=F IPFlag=           0 FMFlag=           0 FMFlg1=           0
         NFxFlg=           0 DoJE=F BraDBF=F KetDBF=F FulRan=T
         wScrn=  0.000000 ICntrl=       600 IOpCl=  0 I1Cent=           0 NGrid=           0
         NMat0=    1 NMatS0=   1081 NMatT0=    0 NMatD0=    1 NMtDS0=    0 NMtDT0=    0
 Petite list used in FoFCou.
 Closed shell SCF:
 Using DIIS extrapolation, IDIIS=    10.
 NGot= 12348030976 LenX= 12347938907 LenY= 12347935966
 Requested convergence on RMS density matrix=1.00D-08 within 128 cycles.
 Requested convergence on MAX density matrix=1.00D-06.
 Requested convergence on             energy=1.00D-06.
 Level shift goal  0.100 maximum shift  0.100.
 No special actions if energy rises.
 Dynamic level shift is on during FON iterations.
 An orbital has undefined symmetry, so N**3 symmetry is turned off.
 
  Hrant - CycOpn.
 

 Cycle   1  Pass 1  IDiag  1:
 E= -1.17158893079358    
 DIIS: error= 4.06D-10 at cycle   1 NSaved=   1.
 NSaved= 1 IEnMin= 1 EnMin= -1.17158893079358     IErMin= 1 ErrMin= 4.06D-10
 ErrMax= 4.06D-10  0.00D+00 EMaxC= 1.00D+00 BMatC= 8.24D-19 BMatP= 8.24D-19
 Rises=F IDIUse=1 WtCom= 1.00D+00 WtEn= 0.00D+00
 Coeff-Com:  0.100D+01
 Coeff:      0.100D+01
 Gap=     0.535 Goal=     0.100 Shift=    0.000
 RMSDP=6.62D-11 MaxDP=5.61D-10              OVMax= 2.05D-09

 SCF Done:  E(RCAM-B3LYP) =  -1.17158893079     A.U. after    1 cycles
            NFock=  1  Conv=0.66D-10     -V/T= 2.0363
 KE=           1.130532 PE=          -3.633119 EE=           0.615894
 Leave Link  502 at Sat Aug  2 15:34:23 2025, MaxMem= 12348030976 cpu:               7.5 elap:               0.2
 (Enter /home/hhratchian/gaussian/gdv-20250101-j30+/gdv/l601.exe)
 Copying SCF densities to generalized density rwf, IOpCl= 0 IROHF=0.
 
 **********************************************************************
 
               Population analysis using the SCF Density.
 
 **********************************************************************
 
 Orbital symmetries:
       Occupied  (SGG)
       Virtual   (SGU) (SGG) (SGU) (PIU) (PIU) (SGG) (PIG) (PIG)
                 (SGG) (SGU) (SGU) (DLTG) (DLTG) (PIG) (PIG) (PIU)
                 (PIU) (SGG) (SGU) (DLTU) (DLTU) (PIU) (PIU) (SGG)
                 (PIG) (PIG) (SGU) (SGU) (SGG) (PIU) (PIU) (DLTG)
                 (DLTG) (SGG) (DLTU) (DLTU) (PIU) (PIU) (PIG) (PIG)
                 (SGU) (PIG) (PIG) (SGG) (SGU)
 The electronic state is 1-SGG.
 Alpha  occ. eigenvalues --       -0.50079
 Alpha virt. eigenvalues --        0.03464       0.03555       0.13863       0.15267       0.15267
 Alpha virt. eigenvalues --        0.24677       0.26170       0.26170       0.35521       0.36794
 Alpha virt. eigenvalues --        0.65103       0.70278       0.70278       0.80934       0.80934
 Alpha virt. eigenvalues --        0.81335       0.81335       0.81955       0.96255       0.97066
 Alpha virt. eigenvalues --        0.97066       0.98588       0.98588       1.38879       1.80661
 Alpha virt. eigenvalues --        1.80661       2.00045       2.38628       2.69587       3.37875
 Alpha virt. eigenvalues --        3.37875       3.39616       3.39616       3.90455       4.19102
 Alpha virt. eigenvalues --        4.19102       4.20220       4.20220       4.27663       4.27663
 Alpha virt. eigenvalues --        4.96192       5.52399       5.52399       5.72371       6.77579
          Condensed to atoms (all electrons):
               1          2
     1  H    0.582167   0.417833
     2  H    0.417833   0.582167
 Mulliken charges:
               1
     1  H    0.000000
     2  H    0.000000
 Sum of Mulliken charges=   0.00000
 Mulliken charges with hydrogens summed into heavy atoms:
               1
 Electronic spatial extent (au):  <R**2>=              5.2926
 Charge=              0.0000 electrons
 Dipole moment (field-independent basis, Debye):
    X=             -0.0000    Y=             -0.0000    Z=             -0.0000  Tot=              0.0000
 Quadrupole moment (field-independent basis, Debye-Ang):
   XX=             -2.1383   YY=             -2.1383   ZZ=             -1.5269
   XY=              0.0000   XZ=             -0.0000   YZ=              0.0000
 Traceless Quadrupole moment (field-independent basis, Debye-Ang):
   XX=             -0.2038   YY=             -0.2038   ZZ=              0.4076
   XY=              0.0000   XZ=             -0.0000   YZ=              0.0000
 Octapole moment (field-independent basis, Debye-Ang**2):
  XXX=             -0.0000  YYY=             -0.0000  ZZZ=             -0.0000  XYY=             -0.0000
  XXY=             -0.0000  XXZ=              0.0000  XZZ=             -0.0000  YZZ=             -0.0000
  YYZ=              0.0000  XYZ=             -0.0000
 Hexadecapole moment (field-independent basis, Debye-Ang**3):
 XXXX=             -2.2658 YYYY=             -2.2658 ZZZZ=             -2.9673 XXXY=              0.0000
 XXXZ=              0.0000 YYYX=              0.0000 YYYZ=              0.0000 ZZZX=              0.0000
 ZZZY=              0.0000 XXYY=             -0.7553 XXZZ=             -0.8922 YYZZ=             -0.8922
 XXYZ=              0.0000 YYXZ=              0.0000 ZZXY=              0.0000
 N-N=           0.715104 E-N=          -3.633119  KE=           1.130532
 Symmetry AG   KE=           1.130532
 Symmetry B1G  KE=           0.000000
 Symmetry B2G  KE=           0.000000
 Symmetry B3G  KE=           0.000000
 Symmetry AU   KE=           0.000000
 Symmetry B1U  KE=           0.000000
 Symmetry B2U  KE=           0.000000
 Symmetry B3U  KE=           0.000000
 No NMR shielding tensors so no spin-rotation constants.
 Leave Link  601 at Sat Aug  2 15:34:23 2025, MaxMem= 12348030976 cpu:               5.3 elap:               0.1
 (Enter /home/hhratchian/gaussian/gdv-20250101-j30+/gdv/l701.exe)
 ... and contract with generalized density number  0.
 Compute integral first derivatives.
   8 Symmetry operations used in ECPInt.
 ECPInt:  NShTT=     171 NPrTT=     259 LenC2=     172 LenP2D=     259.
 LDataN:  DoStor=T MaxTD1= 5 Len=  102
 Leave Link  701 at Sat Aug  2 15:34:24 2025, MaxMem= 12348030976 cpu:               3.5 elap:               0.1
 (Enter /home/hhratchian/gaussian/gdv-20250101-j30+/gdv/l702.exe)
 L702 exits ... SP integral derivatives will be done elsewhere.
 Leave Link  702 at Sat Aug  2 15:34:24 2025, MaxMem= 12348030976 cpu:               1.4 elap:               0.1
 (Enter /home/hhratchian/gaussian/gdv-20250101-j30+/gdv/l703.exe)
 Integral derivatives from FoFJK, PRISM(SPDF).
 Compute integral first derivatives, UseDBF=F ICtDFT=           0.
 Calling FoFJK, ICntrl=      2127 FMM=F ISym2X=1 I1Cent= 0 IOpClX= 0 NMat=1 NMatS=1 NMatT=0.
 FoFJK:  IHMeth= 1 ICntrl=    2127 DoSepK=T KAlg= 0 I1Cent=           0 FoldK=F
 IRaf=         1 NMat=       1 IRICut=       1 DoRegI=T DoRafI=F ISym2E= 1 IDoP0=0 IntGTp=1.
 FoFCou: FMM=F IPFlag=           0 FMFlag=      100000 FMFlg1=         800
         NFxFlg=           0 DoJE=F BraDBF=F KetDBF=F FulRan=T
         wScrn=  0.000000 ICntrl=      2527 IOpCl=  0 I1Cent=           0 NGrid=           0
         NMat0=    1 NMatS0=      1 NMatT0=    0 NMatD0=    1 NMtDS0=    0 NMtDT0=    0
 Petite list used in FoFCou.
 Leave Link  703 at Sat Aug  2 15:34:24 2025, MaxMem= 12348030976 cpu:              11.2 elap:               0.3
 (Enter /home/hhratchian/gaussian/gdv-20250101-j30+/gdv/l716.exe)
 Dipole        =-1.87354465D-30-2.00739735D-30-1.11022302D-16
 ***** Axes restored to original set *****
 -------------------------------------------------------------------
 Center     Atomic                   Forces (Hartrees/Bohr)
 Number     Number              X              Y              Z
 -------------------------------------------------------------------
      1        1           0.000000000    0.000000000   -0.003861195
      2        1          -0.000000000   -0.000000000    0.003861195
 -------------------------------------------------------------------
 Cartesian Forces:  Max     0.003861195 RMS     0.002229262
 Leave Link  716 at Sat Aug  2 15:34:24 2025, MaxMem= 12348030976 cpu:               0.1 elap:               0.0
 (Enter /home/hhratchian/gaussian/gdv-20250101-j30+/gdv/l103.exe)

 GradGradGradGradGradGradGradGradGradGradGradGradGradGradGradGradGradGrad
 Berny optimization.
 FormGI is forming the generalized inverse of G from B-inverse, IUseBI=4.
 NTrRot=    -1 NTRed=     1 NAtoms=     2 NSkip=     0 NRank=     1 IsLin=T EigSml=2.0000D+00
 Internal  Forces:  Max     0.003861195 RMS     0.003861195
 Search for a local minimum.
 Step number   1 out of a maximum of   20
 All quantities printed in internal units (Hartrees-Bohrs-Radians)
 RMS Force = .38612D-02 SwitMx=.10000D-02 MixMth= 1
 Mixed Optimization -- RFO/linear search
 Second derivative matrix not updated -- first step.
 The second derivative matrix:
                          R1
           R1           0.39139
 ITU=  0
     Eigenvalues ---    0.39139
 RFO step:  Lambda=-3.80878771D-05 EMin= 3.91394213D-01
 Linear search not attempted -- first point.
 GrdOpt: GIC=T ITstSp=  0 NP=   1 DidLin=F DidDIS=F IDoGRo=0 IDoRot=0
         ISwap=1 XLin= 0.000 DXMaxT= 0.300
 Iteration  1 RMS(Cart)=  0.00284757 RMS(Int)=  0.00000000
 Iteration  2 RMS(Cart)=  0.00000000 RMS(Int)=  0.00000000
 ClnCor:  largest displacement from symmetrization is 2.22D-16 for atom     2.
 Variable       Old X    -DE/DX   Delta X   Delta X   Delta X     New X
                                 (Linear)    (Quad)   (Total)
    R1        1.39840   0.00386   0.00000   0.00986   0.00986   1.40826
         Item               Value     Threshold  Converged?
 Maximum Force            0.003861     0.000450     NO 
 RMS     Force            0.003861     0.000300     NO 
 Maximum Displacement     0.004932     0.001800     NO 
 RMS     Displacement     0.006975     0.001200     NO 
 Predicted change in Energy=-1.904579D-05
 Lowest energy point so far.  Saving SCF results.
 GradGradGradGradGradGradGradGradGradGradGradGradGradGradGradGradGradGrad

 Leave Link  103 at Sat Aug  2 15:34:24 2025, MaxMem= 12348030976 cpu:               1.3 elap:               0.1
 (Enter /home/hhratchian/gaussian/gdv-20250101-j30+/gdv/l202.exe)
                          Input orientation:                          
 ---------------------------------------------------------------------
 Center     Atomic      Atomic             Coordinates (Angstroms)
 Number     Number       Type             X           Y           Z
 ---------------------------------------------------------------------
      1          1           0        0.000000    0.000000   -0.002610
      2          1           0        0.000000    0.000000    0.742610
 ---------------------------------------------------------------------
 Stoichiometry    H2
 Framework group  D*H[C*(H.H)]
 Deg. of freedom     1
 Full point group                 D*H     NOp   8
 RotChk:  IX=0 Diff= 0.00D+00
 Largest Abelian subgroup         D2H     NOp   8
 Largest concise Abelian subgroup C2      NOp   2
                         Standard orientation:                         
 ---------------------------------------------------------------------
 Center     Atomic      Atomic             Coordinates (Angstroms)
 Number     Number       Type             X           Y           Z
 ---------------------------------------------------------------------
      1          1           0        0.000000    0.000000    0.372610
      2          1           0        0.000000    0.000000   -0.372610
 ---------------------------------------------------------------------
 Rotational constants (GHZ):           0.0000000        1805.8975505        1805.8975505
 Leave Link  202 at Sat Aug  2 15:34:24 2025, MaxMem= 12348030976 cpu:               1.5 elap:               0.0
 (Enter /home/hhratchian/gaussian/gdv-20250101-j30+/gdv/local/l301.exe)
 Basis read from rwf:  (5D, 7F)
 Pseudo-potential data read from rwf file.
 There are    13 symmetry adapted cartesian basis functions of AG  symmetry.
 There are     2 symmetry adapted cartesian basis functions of B1G symmetry.
 There are     5 symmetry adapted cartesian basis functions of B2G symmetry.
 There are     5 symmetry adapted cartesian basis functions of B3G symmetry.
 There are     2 symmetry adapted cartesian basis functions of AU  symmetry.
 There are    13 symmetry adapted cartesian basis functions of B1U symmetry.
 There are     5 symmetry adapted cartesian basis functions of B2U symmetry.
 There are     5 symmetry adapted cartesian basis functions of B3U symmetry.
 There are    11 symmetry adapted basis functions of AG  symmetry.
 There are     2 symmetry adapted basis functions of B1G symmetry.
 There are     5 symmetry adapted basis functions of B2G symmetry.
 There are     5 symmetry adapted basis functions of B3G symmetry.
 There are     2 symmetry adapted basis functions of AU  symmetry.
 There are    11 symmetry adapted basis functions of B1U symmetry.
 There are     5 symmetry adapted basis functions of B2U symmetry.
 There are     5 symmetry adapted basis functions of B3U symmetry.
    46 basis functions,    54 primitive gaussians,    50 cartesian basis functions
     1 alpha electrons        1 beta electrons
       nuclear repulsion energy         0.7100953380 Hartrees.
 IExCor=   2004019 DFT=T Ex+Corr=CAM-B3LYP ScaHFX=  1.000000
 ScaDFX=  1.000000  1.000000  1.000000  0.810000  1.000000  0.000000
 ScaDFX=  0.000000  0.000000  0.000000  0.000000  0.000000  0.000000
 Grid=SuperFine IRanWt=     -1 IRanGd=            0 ICorTp=0 IEDCtl=  2004
 HFx  wShort=  0.000000 wLong=  0.330000 cFull=  0.190000 cShort=  0.000000 cLong=  0.460000
 DFx  wShort=  0.330000 wLong=  0.000000 cFull=  0.350000 cShort=  0.460000 cLong=  0.000000
[...]
         NFxFlg=           0 DoJE=F BraDBF=F KetDBF=F FulRan=T
         wScrn=  0.000000 ICntrl=       600 IOpCl=  0 I1Cent=           0 NGrid=           0
         NMat0=    1 NMatS0=   1081 NMatT0=    0 NMatD0=    1 NMtDS0=    0 NMtDT0=    0
 Petite list used in FoFCou.
 Closed shell SCF:
 Using DIIS extrapolation, IDIIS=    10.
 NGot= 12348030976 LenX= 12347938907 LenY= 12347935966
 Requested convergence on RMS density matrix=1.00D-08 within 128 cycles.
 Requested convergence on MAX density matrix=1.00D-06.
 Requested convergence on             energy=1.00D-06.
 Level shift goal  0.100 maximum shift  0.100.
 No special actions if energy rises.
 Dynamic level shift is on during FON iterations.
 An orbital has undefined symmetry, so N**3 symmetry is turned off.
 
  Hrant - CycOpn.
 

 Cycle   1  Pass 1  IDiag  1:
 E= -1.17160857071161    
 DIIS: error= 3.20D-10 at cycle   1 NSaved=   1.
 NSaved= 1 IEnMin= 1 EnMin= -1.17160857071161     IErMin= 1 ErrMin= 3.20D-10
 ErrMax= 3.20D-10  0.00D+00 EMaxC= 1.00D+00 BMatC= 7.90D-19 BMatP= 7.90D-19
 Rises=F IDIUse=1 WtCom= 1.00D+00 WtEn= 0.00D+00
 Coeff-Com:  0.100D+01
 Coeff:      0.100D+01
 Gap=     0.534 Goal=     0.100 Shift=    0.000
 RMSDP=7.05D-11 MaxDP=5.37D-10              OVMax= 2.00D-09

 SCF Done:  E(RCAM-B3LYP) =  -1.17160857071     A.U. after    1 cycles
            NFock=  1  Conv=0.71D-10     -V/T= 2.0410
 KE=           1.125486 PE=          -3.621209 EE=           0.614019
 Leave Link  502 at Sat Aug  2 15:34:31 2025, MaxMem= 12348030976 cpu:               6.4 elap:               0.2
 (Enter /home/hhratchian/gaussian/gdv-20250101-j30+/gdv/l601.exe)
 Copying SCF densities to generalized density rwf, IOpCl= 0 IROHF=0.
 
 **********************************************************************
 
               Population analysis using the SCF Density.
 
 **********************************************************************
 
 Orbital symmetries:
       Occupied  (SGG)
       Virtual   (SGU) (SGG) (SGU) (PIU) (PIU) (SGG) (PIG) (PIG)
                 (SGG) (SGU) (SGU) (DLTG) (DLTG) (PIG) (PIG) (PIU)
                 (PIU) (SGG) (SGU) (DLTU) (DLTU) (PIU) (PIU) (SGG)
                 (PIG) (PIG) (SGU) (SGU) (SGG) (PIU) (PIU) (DLTG)
                 (DLTG) (SGG) (DLTU) (DLTU) (PIU) (PIU) (PIG) (PIG)
                 (SGU) (PIG) (PIG) (SGG) (SGU)
 The electronic state is 1-SGG.
 Alpha  occ. eigenvalues --       -0.49966
 Alpha virt. eigenvalues --        0.03443       0.03558       0.13789       0.15251       0.15251
 Alpha virt. eigenvalues --        0.24669       0.26158       0.26158       0.35556       0.36687
 Alpha virt. eigenvalues --        0.65141       0.70242       0.70242       0.80900       0.80900
 Alpha virt. eigenvalues --        0.81287       0.81287       0.81871       0.96085       0.97007
 Alpha virt. eigenvalues --        0.97007       0.98543       0.98543       1.38856       1.80358
 Alpha virt. eigenvalues --        1.80358       2.01391       2.37629       2.69308       3.37699
 Alpha virt. eigenvalues --        3.37699       3.39641       3.39641       3.89974       4.18600
 Alpha virt. eigenvalues --        4.18600       4.19715       4.19715       4.27601       4.27601
 Alpha virt. eigenvalues --        4.94552       5.50639       5.50639       5.69487       6.75146
          Condensed to atoms (all electrons):
               1          2
     1  H    0.582758   0.417242
     2  H    0.417242   0.582758
 Mulliken charges:
               1
     1  H    0.000000
     2  H    0.000000
 Sum of Mulliken charges=   0.00000
 Mulliken charges with hydrogens summed into heavy atoms:
               1
 Electronic spatial extent (au):  <R**2>=              5.3185
 Charge=              0.0000 electrons
 Dipole moment (field-independent basis, Debye):
    X=             -0.0000    Y=             -0.0000    Z=              0.0000  Tot=              0.0000
 Quadrupole moment (field-independent basis, Debye-Ang):
   XX=             -2.1462   YY=             -2.1462   ZZ=             -1.5275
   XY=              0.0000   XZ=             -0.0000   YZ=              0.0000
 Traceless Quadrupole moment (field-independent basis, Debye-Ang):
   XX=             -0.2062   YY=             -0.2062   ZZ=              0.4124
   XY=              0.0000   XZ=             -0.0000   YZ=              0.0000
 Octapole moment (field-independent basis, Debye-Ang**2):
  XXX=             -0.0000  YYY=             -0.0000  ZZZ=             -0.0000  XYY=             -0.0000
  XXY=             -0.0000  XXZ=             -0.0000  XZZ=             -0.0000  YZZ=             -0.0000
  YYZ=             -0.0000  XYZ=              0.0000
 Hexadecapole moment (field-independent basis, Debye-Ang**3):
 XXXX=             -2.2814 YYYY=             -2.2814 ZZZZ=             -2.9961 XXXY=              0.0000
 XXXZ=              0.0000 YYYX=              0.0000 YYYZ=              0.0000 ZZZX=              0.0000
 ZZZY=              0.0000 XXYY=             -0.7605 XXZZ=             -0.9000 YYZZ=             -0.9000
 XXYZ=              0.0000 YYXZ=              0.0000 ZZXY=              0.0000
 N-N=           0.710095 E-N=          -3.621209  KE=           1.125486
 Symmetry AG   KE=           1.125486
 Symmetry B1G  KE=           0.000000
 Symmetry B2G  KE=           0.000000
 Symmetry B3G  KE=           0.000000
 Symmetry AU   KE=           0.000000
 Symmetry B1U  KE=          -0.000000
 Symmetry B2U  KE=           0.000000
 Symmetry B3U  KE=           0.000000
 No NMR shielding tensors so no spin-rotation constants.
 Leave Link  601 at Sat Aug  2 15:34:31 2025, MaxMem= 12348030976 cpu:               5.3 elap:               0.1
 (Enter /home/hhratchian/gaussian/gdv-20250101-j30+/gdv/l801.exe)
 DoSCS=F DFT=T ScalE2(SS,OS)=  1.000000  1.000000
 Range of M.O.s used for correlation:     1    46
 NBasis=    46 NAE=     1 NBE=     1 NFC=     0 NFV=     0
 NROrb=     46 NOA=     1 NOB=     1 NVA=    45 NVB=    45

 **** Warning!!: The largest alpha MO coefficient is  0.59365931D+02

 Leave Link  801 at Sat Aug  2 15:34:31 2025, MaxMem= 12348030976 cpu:               1.3 elap:               0.1
 (Enter /home/hhratchian/gaussian/gdv-20250101-j30+/gdv/l914.exe)
 RHF ground state
 Doing stability rather than CIS.
 DoSCS=F DFT=T ScalE2(SS,OS)=  1.000000  1.000000
   ScalD2(USS,UOS,TSS,TOS,w)=  1.000000  1.000000  1.000000  1.000000  1.000000
 Keep R1 and R2 ints in memory in symmetry-blocked form, NReq=89976509.
 FoFCou: FMM=F IPFlag=           0 FMFlag=           0 FMFlg1=           0
         NFxFlg=           0 DoJE=F BraDBF=F KetDBF=F FulRan=T
         wScrn=  0.000000 ICntrl=       600 IOpCl=  0 I1Cent=           0 NGrid=           0
         NMat0=    1 NMatS0=   1081 NMatT0=    0 NMatD0=    1 NMtDS0=    0 NMtDT0=    0
 Petite list used in FoFCou.
 MDV= 12348030976 DFT=T IDoStb=1 Mixed=T DoRPA=F DoScal=F NonHer=F
 Making orbital integer symmetry assigments:
 Orbital symmetries:
       Occupied  (SGG)
       Virtual   (SGU) (SGG) (SGU) (PIU) (PIU) (SGG) (PIG) (PIG)
                 (SGG) (SGU) (SGU) (DLTG) (DLTG) (PIG) (PIG) (PIU)
                 (PIU) (SGG) (SGU) (DLTU) (DLTU) (PIU) (PIU) (SGG)
                 (PIG) (PIG) (SGU) (SGU) (SGG) (PIU) (PIU) (DLTG)
                 (DLTG) (SGG) (DLTU) (DLTU) (PIU) (PIU) (PIG) (PIG)
                 (SGU) (PIG) (PIG) (SGG) (SGU)
    48 initial guesses have been made.
 Convergence on wavefunction:    0.001000000000000
 Davidson Disk Diagonalization:  ConvIn= 1.00D-03 SkipCon=T Conv= 1.00D-03.
 Max sub-space:   180 initial roots:    48 roots to seek:     1 dimension of matrix:           90
 Iteration     1 Dimension    48 NMult     0 NNew     48
 CISAX will form    48 AO SS matrices at one time.
 NMat=    48 NSing=    24 JSym2X= 2.
 New state      1 was old state      6
 Excitation Energies [eV] at current iteration:
 Root      1 :     8.597889177201678
 Root      2 :    11.001511434075825
 Root      3 :    11.869814285039615
 Root      4 :    12.118621314250552
 Root      5 :    12.148206466187535
 Root      6 :    12.148206466187554
 Root      7 :    12.934366038401382
 Root      8 :    14.304338658671153
 Root      9 :    14.304338658671179
 Root     10 :    15.380978365368552
 Root     11 :    15.974733421287040
 Root     12 :    16.680271913833437
 Root     13 :    16.680271913833572
 Root     14 :    16.699609813019144
 Root     15 :    16.828386853791539
 Root     16 :    16.828386853791827
 Root     17 :    17.856897147022668
 Root     18 :    18.575910292033782
 Root     19 :    21.389896242529762
 Root     20 :    21.959832331806062
 Root     21 :    25.237370187276284
 Root     22 :    26.294554326585551
 Root     23 :    26.294554327491177
 Root     24 :    26.958150121546172
 Root     25 :    26.958150121546186
 Root     26 :    27.359152232759151
 Root     27 :    27.359152233910272
 Root     28 :    29.181562282644382
 Root     29 :    29.609111434726803
 Root     30 :    29.950689988694670
 Root     31 :    29.950689988694997
 Root     32 :    30.914450007778921
 Root     33 :    30.914450007778992
 Root     34 :    31.099877845973975
 Root     35 :    33.446666365641789
 Root     36 :    33.446666365641804
 Root     37 :    34.077150528515205
 Root     38 :    34.241701083599381
 Root     39 :    34.241701087213364
 Root     40 :    34.480100322205907
 Root     41 :    34.480100322205907
 Root     42 :    34.579002829375462
 Root     43 :    34.579002833225324
 Root     44 :    34.999127416098744
 Root     45 :    34.999127416098837
 Root     46 :    36.799498000231864
 Root     47 :    42.813184003893952
 Root     48 :    49.028168860217242
 Iteration     2 Dimension    86 NMult    48 NNew     38
 CISAX will form    38 AO SS matrices at one time.
 NMat=    38 NSing=    19 JSym2X= 2.
 Root      1 not converged, maximum delta is    0.023737876960972
 Excitation Energies [eV] at current iteration:
 Root      1 :     8.511934673700596   Change is   -0.085954503501082
 Root      2 :    10.988433538715105   Change is   -0.013077895360720
 Root      3 :    11.864353811355279   Change is   -0.005460473684336
 Root      4 :    12.111689524177109   Change is   -0.006931790073442
 Root      5 :    12.138141321275910   Change is   -0.010065144911626
 Root      6 :    12.138141321275953   Change is   -0.010065144911603
 Root      7 :    12.915370329306935   Change is   -0.018995709094447
 Root      8 :    14.289352901778773   Change is   -0.014985756892378
 Root      9 :    14.289352901778859   Change is   -0.014985756892320
 Root     10 :    15.352773719391738   Change is   -0.028204645976813
 Root     11 :    15.961382860888124   Change is   -0.013350560398916
 Root     12 :    16.679942519473936   Change is   -0.000329394359498
 Root     13 :    16.679942519474057   Change is   -0.000329394359514
 Root     14 :    16.696911191856866   Change is   -0.002698621162278
 Root     15 :    16.817260569890916   Change is   -0.011126283900624
 Root     16 :    16.817260569891143   Change is   -0.011126283900684
 Root     17 :    17.816467620455814   Change is   -0.040429526566855
 Root     18 :    18.507612340055960   Change is   -0.068297951977824
 Root     19 :    21.334059819964807   Change is   -0.055836422564955
 Root     20 :    21.905271359225669   Change is   -0.054560972580393
 Root     21 :    25.080747456334244   Change is   -0.156622730942041
 Root     22 :    26.251599509595891   Change is   -0.042954816989657
 Root     23 :    26.251599510022441   Change is   -0.042954817468736
 Root     24 :    26.823248583971086   Change is   -0.134901537575100
 Root     25 :    26.823248583971186   Change is   -0.134901537574985
 Root     26 :    27.356831051611611   Change is   -0.002321181147538
 Root     27 :    27.356831052676970   Change is   -0.002321181233306
 Root     28 :    29.089773001521340   Change is   -0.091789281123042
 Root     29 :    29.524949778429004   Change is   -0.084161656297797
 Root     30 :    29.777452785364549   Change is   -0.173237203330123
 Root     31 :    29.777452785364716   Change is   -0.173237203330280
 Root     32 :    30.897364837322623   Change is   -0.017085170456298
 Root     33 :    30.897364837322669   Change is   -0.017085170456322
 Root     34 :    31.093022170994828   Change is   -0.006855674979146
 Root     35 :    33.402214645637265   Change is   -0.044451720004524
 Root     36 :    33.402214645637272   Change is   -0.044451720004536
 Root     37 :    33.908305667267740   Change is   -0.168844861247464
 Root     38 :    34.220997532482208   Change is   -0.020703551117174
 Root     39 :    34.220997536098366   Change is   -0.020703551114992
 Root     40 :    34.456963655864477   Change is   -0.023136666341426
 Root     41 :    34.456963655864506   Change is   -0.023136666341402
 Root     42 :    34.571277961968875   Change is   -0.007724867406589
 Root     43 :    34.571277965809244   Change is   -0.007724867416081
 Root     44 :    34.989143153147630   Change is   -0.009984262951112
 Root     45 :    34.989143153147658   Change is   -0.009984262951173
 Root     46 :    36.680294203609350   Change is   -0.119203796622516
 Root     47 :    42.642437604825005   Change is   -0.170746399068949
 Root     48 :    48.939284180252926   Change is   -0.088884679964317
 Convergence achieved on expansion vectors.
 1PDM for each excited state written to RWF  633
 Ground to excited state transition densities written to RWF  633

 ***********************************************************************
 Stability analysis using <AA,BB:AA,BB> singles matrix:
 ***********************************************************************

 Eigenvectors of the stability matrix:
 
 Eigenvector   1:      Triplet-SGU  Eigenvalue= 0.3128078  <S**2>=2.000
       1 ->  2        -0.43887
       1 ->  4         0.49246
       1 -> 11        -0.21085
       1 -> 12         0.12752
 
 Eigenvector   2:      Triplet-SGG  Eigenvalue= 0.4038175  <S**2>=2.000
       1 ->  3         0.68006
       1 ->  7         0.11466
       1 -> 10        -0.15294
 
 Eigenvector   3:      Singlet-SGU  Eigenvalue= 0.4360070  <S**2>=0.000
       1 ->  2         0.70209
 
 Eigenvector   4:      Singlet-SGG  Eigenvalue= 0.4450964  <S**2>=0.000
       1 ->  3         0.70444
 
 Eigenvector   5:      Triplet-PIU  Eigenvalue= 0.4460685  <S**2>=2.000
       1 ->  5         0.66714
       1 ->  6         0.20585
       1 -> 17         0.11042
 
 Eigenvector   6:      Triplet-PIU  Eigenvalue= 0.4460685  <S**2>=2.000
       1 ->  5        -0.20585
       1 ->  6         0.66714
       1 -> 18        -0.11042
 The wavefunction is stable under the perturbations considered.
 Leave Link  914 at Sat Aug  2 15:34:32 2025, MaxMem= 12348030976 cpu:              35.4 elap:               0.8
 (Enter /home/hhratchian/gaussian/gdv-20250101-j30+/gdv/l508.exe)
 The wavefunction is already stable.
 Leave Link  508 at Sat Aug  2 15:34:32 2025, MaxMem= 12348030976 cpu:               0.1 elap:               0.0
 (Enter /home/hhratchian/gaussian/gdv-20250101-j30+/gdv/l601.exe)
 Copying SCF densities to generalized density rwf, IOpCl= 0 IROHF=0.
 
 **********************************************************************
 
               Population analysis using the SCF Density.
 
 **********************************************************************
 
 Orbital symmetries:
       Occupied  (SGG)
       Virtual   (SGU) (SGG) (SGU) (PIU) (PIU) (SGG) (PIG) (PIG)
                 (SGG) (SGU) (SGU) (DLTG) (DLTG) (PIG) (PIG) (PIU)
                 (PIU) (SGG) (SGU) (DLTU) (DLTU) (PIU) (PIU) (SGG)
                 (PIG) (PIG) (SGU) (SGU) (SGG) (PIU) (PIU) (DLTG)
                 (DLTG) (SGG) (DLTU) (DLTU) (PIU) (PIU) (PIG) (PIG)
                 (SGU) (PIG) (PIG) (SGG) (SGU)
 The electronic state is 1-SGG.
 Alpha  occ. eigenvalues --       -0.49966
 Alpha virt. eigenvalues --        0.03443       0.03558       0.13789       0.15251       0.15251
 Alpha virt. eigenvalues --        0.24669       0.26158       0.26158       0.35556       0.36687
 Alpha virt. eigenvalues --        0.65141       0.70242       0.70242       0.80900       0.80900
 Alpha virt. eigenvalues --        0.81287       0.81287       0.81871       0.96085       0.97007
 Alpha virt. eigenvalues --        0.97007       0.98543       0.98543       1.38856       1.80358
 Alpha virt. eigenvalues --        1.80358       2.01391       2.37629       2.69308       3.37699
 Alpha virt. eigenvalues --        3.37699       3.39641       3.39641       3.89974       4.18600
 Alpha virt. eigenvalues --        4.18600       4.19715       4.19715       4.27601       4.27601
 Alpha virt. eigenvalues --        4.94552       5.50639       5.50639       5.69487       6.75146
          Condensed to atoms (all electrons):
               1          2
     1  H    0.582758   0.417242
     2  H    0.417242   0.582758
 Mulliken charges:
               1
     1  H    0.000000
     2  H    0.000000
 Sum of Mulliken charges=   0.00000
 Mulliken charges with hydrogens summed into heavy atoms:
               1
 Electronic spatial extent (au):  <R**2>=              5.3185
 Charge=              0.0000 electrons
 Dipole moment (field-independent basis, Debye):
    X=             -0.0000    Y=             -0.0000    Z=              0.0000  Tot=              0.0000
 Quadrupole moment (field-independent basis, Debye-Ang):
   XX=             -2.1462   YY=             -2.1462   ZZ=             -1.5275
   XY=              0.0000   XZ=             -0.0000   YZ=              0.0000
 Traceless Quadrupole moment (field-independent basis, Debye-Ang):
   XX=             -0.2062   YY=             -0.2062   ZZ=              0.4124
   XY=              0.0000   XZ=             -0.0000   YZ=              0.0000
 Octapole moment (field-independent basis, Debye-Ang**2):
  XXX=             -0.0000  YYY=             -0.0000  ZZZ=             -0.0000  XYY=             -0.0000
  XXY=             -0.0000  XXZ=             -0.0000  XZZ=             -0.0000  YZZ=             -0.0000
  YYZ=             -0.0000  XYZ=              0.0000
 Hexadecapole moment (field-independent basis, Debye-Ang**3):
 XXXX=             -2.2814 YYYY=             -2.2814 ZZZZ=             -2.9961 XXXY=              0.0000
 XXXZ=              0.0000 YYYX=              0.0000 YYYZ=              0.0000 ZZZX=              0.0000
 ZZZY=              0.0000 XXYY=             -0.7605 XXZZ=             -0.9000 YYZZ=             -0.9000
 XXYZ=              0.0000 YYXZ=              0.0000 ZZXY=              0.0000
 N-N=           0.710095 E-N=          -3.621209  KE=           1.125486
 Symmetry AG   KE=           1.125486
 Symmetry B1G  KE=           0.000000
 Symmetry B2G  KE=           0.000000
 Symmetry B3G  KE=           0.000000
 Symmetry AU   KE=           0.000000
 Symmetry B1U  KE=          -0.000000
 Symmetry B2U  KE=           0.000000
 Symmetry B3U  KE=           0.000000
 No NMR shielding tensors so no spin-rotation constants.
 Leave Link  601 at Sat Aug  2 15:34:32 2025, MaxMem= 12348030976 cpu:               3.7 elap:               0.1
 (Enter /home/hhratchian/gaussian/gdv-20250101-j30+/gdv/local/l9999.exe)
 Unable to Open any file for archive entry.
 1\1\GINC-HMNODE006\Stability\RCAM-B3LYP\Gen\H2\AABOUTAKA\02-Aug-2025\0
 \\#P CAM-B3LYP chkbasis Geom=AllCheck Guess=Read Stable=Opt SCF=(fermi
 ,novaracc)\\Initial Stability Check for H2\\0,1\H,0,0.,0.,-0.002609974
 1\H,0,0.,0.,0.7426099741\\Version=ES64L-GDVRevJ.30+\State=1-SGG\HF=-1.
 1716086\RMSD=7.053e-11\Dipole=0.,0.,0.\Quadrupole=-0.1533186,-0.153318
 6,0.3066372,0.,0.,0.\PG=D*H [C*(H1.H1)]\\@
 The archive entry for this job was punched.


 Mondays are the potholes in the road of life.
                                -- Tom Wilson
 Job cpu time:       0 days  0 hours  1 minutes  9.7 seconds.
 Elapsed time:       0 days  0 hours  0 minutes  2.2 seconds.
 File lengths (MBytes):  RWF=     30 Int=      0 D2E=      0 Chk=     74 Scr=      2
 Normal termination of Gaussian DV at Sat Aug  2 15:34:32 2025.
