 Set GAUSS_MDEF to "92GB".
 Set GAUSS_PDEF to "56".
 Entering Gaussian System, Link 0=gdv
 Initial command:
 /home/hhratchian/gaussian/gdv-20250101-j30+/gdv/local/l1.exe "/scratch/aaboutaka/1562802/Gau-75029.inp" -scrdir="/scratch/aaboutaka/1562802/"
 Default is to use a total of  56 processors:
                               56 via shared-memory
                                1 via Linda
 Entering Link 1 = /home/hhratchian/gaussian/gdv-20250101-j30+/gdv/local/l1.exe PID=     75030.
  
 Copyright (c) 1988-2024, Gaussian, Inc.  All Rights Reserved.
  
 This is the private, development version of
 the Gaussian(R) DV system of programs. It is based on
 the Gaussian(R) 16 system (copyright 2016, Gaussian, Inc.),
 the Gaussian(R) 09 system (copyright 2009, Gaussian, Inc.),
 the Gaussian(R) 03 system (copyright 2003, Gaussian, Inc.),
 the Gaussian(R) 98 system (copyright 1998, Gaussian, Inc.),
 the Gaussian(R) 94 system (copyright 1995, Gaussian, Inc.),
 the Gaussian 92(TM) system (copyright 1992, Gaussian, Inc.),
 the Gaussian 90(TM) system (copyright 1990, Gaussian, Inc.),
 the Gaussian 88(TM) system (copyright 1988, Gaussian, Inc.),
 the Gaussian 86(TM) system (copyright 1986, Carnegie Mellon
 University), and the Gaussian 82(TM) system (copyright 1983,
 Carnegie Mellon University). Gaussian is a federally registered
 trademark of Gaussian, Inc.
  
 This software contains proprietary and confidential information,
 including trade secrets, belonging to Gaussian, Inc.
  
 This software is provided under written license and may be
 used, copied, transmitted, or stored only in accord with that
 written license.
  
 The following legend is applicable only to US Government
 contracts under FAR:
  
                    RESTRICTED RIGHTS LEGEND
  
 Use, reproduction and disclosure by the US Government is
 subject to restrictions as set forth in subparagraphs (a)
 and (c) of the Commercial Computer Software - Restricted
 Rights clause in FAR 52.227-19.
  
 Gaussian, Inc.
 340 Quinnipiac St., Bldg. 40, Wallingford CT 06492
  
  
 ---------------------------------------------------------------
 Warning -- This program may not be used in any manner that
 competes with the business of Gaussian, Inc. or will provide
 assistance to any competitor of Gaussian, Inc.  The licensee
 of this program is prohibited from giving any competitor of
 Gaussian, Inc. access to this program.  By using this program,
 the user acknowledges that Gaussian, Inc. is engaged in the
 business of creating and licensing software in the field of
 computational chemistry and represents and warrants to the
 licensee that it is not a competitor of Gaussian, Inc. and that
 it will not use this program in any manner prohibited above.
 ---------------------------------------------------------------
  

 Cite this work as:
 Gaussian Development Version, Revision J.30+,
 M. J. Frisch, G. W. Trucks, G. Scalmani, J. R. Cheeseman, X. Li, 
 J. Bloino, B. G. Janesko, A. V. Marenich, J. Zheng, F. Lipparini, 
 A. Jenkins, A. Liu, H. Liu, H. B. Schlegel, G. E. Scuseria, 
 M. A. Robb, V. Barone, G. A. Petersson, H. Nakatsuji, B. Mennucci, 
 C. Adamo, N. Rega, M. Caricato, H. P. Hratchian, J. V. Ortiz, 
 F. Pawlowski, A. F. Izmaylov, H. Hu, C. Liao, J. L. Sonnenberg, 
 D. Williams-Young, F. Ding, R. Gomperts, F. Egidi, J. Goings, 
 B. Peng, A. Petrone, T. Henderson, D. Ranasinghe, V. G. Zakrzewski, 
 J. Gao, G. Zheng, W. Liang, M. Hada, M. Ehara, K. Toyota, R. Fukuda, 
 J. Hasegawa, M. Ishida, T. Nakajima, Y. Honda, O. Kitao, H. Nakai, 
 T. Vreven, K. Throssell, J. A. Montgomery, Jr., J. E. Peralta, 
 F. Ogliaro, M. J. Bearpark, J. J. Heyd, E. N. Brothers, K. N. Kudin, 
 V. N. Staroverov, T. A. Keith, R. Kobayashi, J. Normand, 
 K. Raghavachari, A. P. Rendell, J. C. Burant, S. S. Iyengar, 
 M. Cossi, J. M. Millam, M. Klene, R. Cammi, R. L. Martin, O. Farkas, 
 J. B. Foresman, and D. J. Fox, Gaussian, Inc., Wallingford CT, 2024.
 
 *******************************************
 Gaussian DV:  ES64L-GDVRevJ.30+ 18-Dec-2024
                  2-Aug-2025 
 *******************************************
 %Chk=H2_HF_STO3G.chk
 ------------------------------------------------------
 #P HF/STO-3G SCF=(fermi,novaracc) Guess=Mix Stable=Opt
 ------------------------------------------------------
 1/37=210000000,38=1,172=1/1;
 2/12=2/2;
 3/6=3,11=2,25=1,30=1/1,2,3;
 4/13=-1/1;
 5/5=2,22=13,38=1/2;
 6/7=2,8=2,9=2,10=2,28=1/1;
 8/6=1,10=90,11=11/1;
 9/8=-3,42=1,46=1/14;
 5/5=2,8=3,17=40,22=13,38=1/8(-2);
 6/7=2,8=2,9=2,10=2,28=1/1;
 99/5=1,9=1/99;
 Leave Link    1 at Sat Aug  2 15:34:38 2025, MaxMem=           0 cpu:               1.4 elap:               0.1
 (Enter /home/hhratchian/gaussian/gdv-20250101-j30+/gdv/local/l101.exe)
 
  Hrant - IAPOps =                         0
  Hrant - IAPOp1 =                         0
  Hrant - IAPOp2 =                         0
  Hrant - DoAP   =   F
 
 ------------------------------
 Initial Stability Check for H2
 ------------------------------
 Symbolic Z-matrix:
 Charge =     0 Multiplicity =     1
 H                     0.        0.        0. 
 H                     0.        0.        0.74 
 
 ITRead=  0  0
 MicOpt= -1 -1
 NAtoms=      2 NQM=        2 NQMF=       0 NMMI=      0 NMMIF=      0
                NMic=       0 NMicF=      0.
                    Isotopes and Nuclear Properties:
 (Nuclear quadrupole moments (NQMom) in fm**2, nuclear magnetic moments (NMagM)
  in nuclear magnetons)

  Atom         1           2
 IAtWgt=           1           1
 AtmWgt=   1.0078250   1.0078250
 NucSpn=           1           1
 AtZEff=   -0.000000   -0.000000
 NQMom=    0.0000000   0.0000000
 NMagM=    2.7928460   2.7928460
 AtZNuc=   1.0000000   1.0000000
 Leave Link  101 at Sat Aug  2 15:34:38 2025, MaxMem= 12348030976 cpu:               1.3 elap:               0.1
 (Enter /home/hhratchian/gaussian/gdv-20250101-j30+/gdv/l202.exe)
                          Input orientation:                          
 ---------------------------------------------------------------------
 Center     Atomic      Atomic             Coordinates (Angstroms)
 Number     Number       Type             X           Y           Z
 ---------------------------------------------------------------------
      1          1           0        0.000000    0.000000    0.000000
      2          1           0        0.000000    0.000000    0.740000
 ---------------------------------------------------------------------
 Stoichiometry    H2
 Framework group  D*H[C*(H.H)]
 Deg. of freedom     1
 Full point group                 D*H     NOp   8
 Largest Abelian subgroup         D2H     NOp   8
 Largest concise Abelian subgroup C2      NOp   2
                         Standard orientation:                         
 ---------------------------------------------------------------------
 Center     Atomic      Atomic             Coordinates (Angstroms)
 Number     Number       Type             X           Y           Z
 ---------------------------------------------------------------------
      1          1           0        0.000000    0.000000    0.370000
      2          1           0        0.000000    0.000000   -0.370000
 ---------------------------------------------------------------------
 Rotational constants (GHZ):           0.0000000        1831.4649542        1831.4649542
 Leave Link  202 at Sat Aug  2 15:34:38 2025, MaxMem= 12348030976 cpu:               1.2 elap:               0.0
 (Enter /home/hhratchian/gaussian/gdv-20250101-j30+/gdv/local/l301.exe)
 Standard basis: STO-3G (5D, 7F)
 Ernie: Thresh=  0.10000D-02 Tol=  0.10000D-05 Strict=F.
 There are     1 symmetry adapted cartesian basis functions of AG  symmetry.
 There are     0 symmetry adapted cartesian basis functions of B1G symmetry.
 There are     0 symmetry adapted cartesian basis functions of B2G symmetry.
 There are     0 symmetry adapted cartesian basis functions of B3G symmetry.
 There are     0 symmetry adapted cartesian basis functions of AU  symmetry.
 There are     1 symmetry adapted cartesian basis functions of B1U symmetry.
 There are     0 symmetry adapted cartesian basis functions of B2U symmetry.
 There are     0 symmetry adapted cartesian basis functions of B3U symmetry.
 There are     1 symmetry adapted basis functions of AG  symmetry.
 There are     0 symmetry adapted basis functions of B1G symmetry.
 There are     0 symmetry adapted basis functions of B2G symmetry.
 There are     0 symmetry adapted basis functions of B3G symmetry.
 There are     0 symmetry adapted basis functions of AU  symmetry.
 There are     1 symmetry adapted basis functions of B1U symmetry.
 There are     0 symmetry adapted basis functions of B2U symmetry.
 There are     0 symmetry adapted basis functions of B3U symmetry.
     2 basis functions,     6 primitive gaussians,     2 cartesian basis functions
     1 alpha electrons        1 beta electrons
       nuclear repulsion energy         0.7151043391 Hartrees.
 IExCor=         0 DFT=F Ex=HF Corr=None N6=None ScaHFX=  1.000000
 ScaDFX=  1.000000  1.000000  1.000000  1.000000  1.000000  0.000000
 ScaDFX=  0.000000  0.000000  0.000000  0.000000  0.000000  0.000000
 Grid=UltraFine IRanWt=     -1 IRanGd=            0 ICorTp=0 IEDCtl=  2004
 NAtoms=    2 NActive=    2 NUniq=    1 SFac= 4.00D+00 NAtFMM=   60 NAOKFM=F Big=F
 Integral buffers will be    131072 words long.
 Raffenetti 2 integral format.
 Two-electron integral symmetry is turned on.
 Leave Link  301 at Sat Aug  2 15:34:38 2025, MaxMem= 12348030976 cpu:               0.2 elap:               0.0
 (Enter /home/hhratchian/gaussian/gdv-20250101-j30+/gdv/l302.exe)
 NPDir=0 NMtPBC=     1 NCelOv=     1 NCel=       1 NClECP=     1 NCelD=      1
         NCelK=      1 NCelE2=     1 NClLst=     1 CellRange=     0.0.
 One-electron integrals computed using PRISM.
 One-electron integral symmetry used in STVInt
 NBasis=     2 RedAO= T EigKep=  3.40D-01  NBF=     1     0     0     0     0     1     0     0
 NBsUse=     2 1.00D-06 EigRej= -1.00D+00 NBFU=     1     0     0     0     0     1     0     0
 Leave Link  302 at Sat Aug  2 15:34:38 2025, MaxMem= 12348030976 cpu:               3.1 elap:               0.1
 (Enter /home/hhratchian/gaussian/gdv-20250101-j30+/gdv/l303.exe)
 DipDrv:  MaxL=1.
 Leave Link  303 at Sat Aug  2 15:34:38 2025, MaxMem= 12348030976 cpu:               1.3 elap:               0.0
 (Enter /home/hhratchian/gaussian/gdv-20250101-j30+/gdv/l401.exe)
 ExpMin= 1.69D-01 ExpMax= 3.43D+00 ExpMxC= 3.43D+00 IAcc=3 Grid=UltraFine AccDes= 0.00D+00
 Harris functional with IExCor= 2005 and Grid=UltraFine diagonalized for initial guess.
 HarFok:  IExCor=    2005 AccDes= 0.00D+00 Grid=UltraFine IDoV= 1 UseB2=F ITyADJ=14 ICtDFT=  3500011
 FoFCou: FMM=F IPFlag=           0 FMFlag=      100000 FMFlg1=           0
         NFxFlg=           0 DoJE=T BraDBF=F KetDBF=T FulRan=T
         wScrn=  0.000000 ICntrl=       500 IOpCl=  0 I1Cent=   200000004 NGrid=           0
         NMat0=    1 NMatS0=      1 NMatT0=    0 NMatD0=    1 NMtDS0=    0 NMtDT0=    0
 Petite list used in FoFCou.
 Harris En= -1.17238600344180    
 JPrj=0 DoOrth=F DoCkMO=T.
 Mixing orbitals, IMix= 1 IMixAn=  0 NRI=1 NE=    1 Coef=  7.07106781D-01  7.07106781D-01
 Initial guess orbital symmetries:
       Occupied  (?A)
       Virtual   (?A)
 Leave Link  401 at Sat Aug  2 15:34:38 2025, MaxMem= 12348030976 cpu:               4.1 elap:               0.1
 (Enter /home/hhratchian/gaussian/gdv-20250101-j30+/gdv/local/l502.exe)
 Keep R1 ints in memory in symmetry-blocked form, NReq=11202978.
 FoFCou: FMM=F IPFlag=           0 FMFlag=           0 FMFlg1=           0
         NFxFlg=           0 DoJE=F BraDBF=F KetDBF=F FulRan=T
         wScrn=  0.000000 ICntrl=       600 IOpCl=  0 I1Cent=           0 NGrid=           0
         NMat0=    1 NMatS0=      3 NMatT0=    0 NMatD0=    1 NMtDS0=    0 NMtDT0=    0
 Petite list used in FoFCou.
 Closed shell SCF:
 Using DIIS extrapolation, IDIIS=    10.
 NGot= 12348030976 LenX= 12348028340 LenY= 12348027458
 Requested convergence on RMS density matrix=1.00D-08 within 128 cycles.
 Requested convergence on MAX density matrix=1.00D-06.
 Requested convergence on             energy=1.00D-06.
 Level shift goal  0.100 maximum shift  0.100.
 No special actions if energy rises.
 Dynamic level shift is on during FON iterations.
 An orbital has undefined symmetry, so N**3 symmetry is turned off.
 
  Hrant - CycOpn.
 

 Cycle   1  Pass 1  IDiag  1:
 Density matrix breaks symmetry, PCut= 1.00D-07
 Density matrix has no symmetry -- integrals replicated.
 E=-0.157106284464580    
 DIIS: error= 1.97D-01 at cycle   1 NSaved=   1.
 NSaved= 1 IEnMin= 1 EnMin=-0.157106284464580     IErMin= 1 ErrMin= 1.97D-01
 ErrMax= 1.97D-01  0.00D+00 EMaxC= 1.00D+00 BMatC= 7.80D-02 BMatP= 7.80D-02
 Rises=F IDIUse=1 WtCom= 1.00D+00 WtEn= 0.00D+00
 Coeff-Com:  0.100D+01
 Coeff:      0.100D+01
 Gap=     0.120 Goal=     0.100 Shift=    0.000
 T= 2627. Gap= 0.799 NK=0 IS=    2 IE=    2 IFin=    1
          NO(<0.9)=   0  NV(>0.1)=   0      1.00e < EF      0.00e >EF  Err=0.0D+00
 GapD=    0.120 DampG=1.000 DampE=0.250 DampFc=0.2500 IDamp=-1.
 Damping current iteration by 2.50D-01
 RMSDP=8.43D-01 MaxDP=1.14D+00              OVMax= 0.00D+00

 Cycle   2  Pass 1  IDiag  1:
 Density matrix breaks symmetry, PCut= 1.00D-07
 Density matrix has no symmetry -- integrals replicated.
 E=-0.343537294955987     Delta-E=       -0.186431010491 Rises=F Damp=T AM=F Ri=F Fa=F
 DIIS: error= 1.72D-01 at cycle   2 NSaved=   2.
 NSaved= 2 IEnMin= 2 EnMin=-0.343537294955987     IErMin= 2 ErrMin= 1.72D-01
 ErrMax= 1.72D-01  0.00D+00 EMaxC= 1.00D+00 BMatC= 5.92D-02 BMatP= 7.80D-02
 Rises=F IDIUse=1 WtCom= 1.00D+00 WtEn= 0.00D+00
 Coeff-Com: -0.677D+01 0.777D+01
 Coeff:     -0.677D+01 0.777D+01
 Gap=     1.643 Goal=     0.100 Shift=    0.000
 T= 2600. Gap= 1.675 NK=0 IS=    2 IE=    2 IFin=    1
          NO(<0.9)=   0  NV(>0.1)=   0      1.00e < EF      0.00e >EF  Err=0.0D+00
 GapD=    1.643 DampG=2.000 DampE=0.250 DampFc=0.5000 IDamp=-1.
 Damping current iteration by 5.00D-01
 RMSDP=6.87D-01 MaxDP=9.94D-01 DE=-1.86D-01 OVMax= 0.00D+00

 Cycle   3  Pass 1  IDiag  1:
 Density matrix breaks symmetry, PCut= 1.00D-07
 Density matrix has no symmetry -- integrals replicated.
 E=-0.686589804530288     Delta-E=       -0.343052509574 Rises=F Damp=T AM=F Ri=F Fa=F
 DIIS: error= 9.27D-02 at cycle   3 NSaved=   3.
 NSaved= 3 IEnMin= 3 EnMin=-0.686589804530288     IErMin= 3 ErrMin= 9.27D-02
 ErrMax= 9.27D-02  0.00D+00 EMaxC= 1.00D+00 BMatC= 1.72D-02 BMatP= 5.92D-02
 Rises=F IDIUse=1 WtCom= 1.00D+00 WtEn= 0.00D+00
 SCFDIS: NSaved=  3 BigCof=    0.00 CofMax=   50.00 Det=-3.40D-17
 Inversion failed.  Reducing to  2 matrices.
 Coeff-Com: -0.117D+01 0.217D+01
 Coeff:     -0.117D+01 0.217D+01
 Gap=     1.278 Goal=     0.100 Shift=    0.000
 T= 2400. Gap= 1.279 NK=0 IS=    2 IE=    2 IFin=    1
          NO(<0.9)=   0  NV(>0.1)=   0      1.00e < EF      0.00e >EF  Err=0.0D+00
 GapD=    1.278 DampG=2.000 DampE=0.500 DampFc=1.0000 IDamp=-1.
 RMSDP=3.35D-01 MaxDP=4.74D-01 DE=-3.43D-01 OVMax= 0.00D+00

 Cycle   4  Pass 1  IDiag  1:
 Density matrix breaks symmetry, PCut= 1.00D-07
 Density matrix has no symmetry -- integrals replicated.
 E= -1.11669047305205     Delta-E=       -0.430100668522 Rises=F Damp=F AM=F Ri=F Fa=F
 DIIS: error= 3.12D-03 at cycle   4 NSaved=   3.
 NSaved= 3 IEnMin= 3 EnMin= -1.11669047305205     IErMin= 3 ErrMin= 3.12D-03
 ErrMax= 3.12D-03  0.00D+00 EMaxC= 1.00D+00 BMatC= 1.94D-05 BMatP= 1.72D-02
 Rises=F IDIUse=1 WtCom= 1.00D+00 WtEn= 0.00D+00
 SCFDIS: NSaved=  3 BigCof=    0.00 CofMax=   50.00 Det= 1.23D-17
 Inversion failed.  Reducing to  2 matrices.
 Coeff-Com:  0.325D-01 0.967D+00
 Coeff:      0.325D-01 0.967D+00
 Gap=     1.244 Goal=     0.100 Shift=    0.000
 T= 2100. Gap= 1.244 NK=0 IS=    2 IE=    2 IFin=    1
          NO(<0.9)=   0  NV(>0.1)=   0      1.00e < EF      0.00e >EF  Err=0.0D+00
 GapD=    1.244 DampG=2.000 DampE=1.000 DampFc=2.0000 IDamp=-1.
 RMSDP=5.26D-03 MaxDP=7.47D-03 DE=-4.30D-01 OVMax= 0.00D+00

 Cycle   5  Pass 1  IDiag  1:
 Density matrix breaks symmetry, PCut= 1.00D-07
 Density matrix has no symmetry -- integrals replicated.
 E= -1.11675929768560     Delta-E=       -0.000068824634 Rises=F Damp=F AM=F Ri=F Fa=F
 DIIS: error= 3.72D-05 at cycle   5 NSaved=   3.
 NSaved= 3 IEnMin= 3 EnMin= -1.11675929768560     IErMin= 3 ErrMin= 3.72D-05
 ErrMax= 3.72D-05  0.00D+00 EMaxC= 1.00D+00 BMatC= 2.77D-09 BMatP= 1.94D-05
 Rises=F IDIUse=1 WtCom= 1.00D+00 WtEn= 0.00D+00
 SCFDIS: NSaved=  3 BigCof=    0.00 CofMax=   50.00 Det= 3.16D-20
 Inversion failed.  Reducing to  2 matrices.
 Coeff-Com:  0.118D-01 0.988D+00
 Coeff:      0.118D-01 0.988D+00
 Gap=     1.250 Goal=     0.100 Shift=    0.000
 RMSDP=6.21D-05 MaxDP=8.78D-05 DE=-6.88D-05 OVMax= 0.00D+00

 Cycle   6  Pass 1  IDiag  1:
 E= -1.11675930751026     Delta-E=       -0.000000009825 Rises=F Damp=F AM=F Ri=F Fa=F
 DIIS: error= 0.00D+00 at cycle   6 NSaved=   3.
 NSaved= 3 IEnMin= 3 EnMin= -1.11675930751026     IErMin= 3 ErrMin= 0.00D+00
 ErrMax= 0.00D+00  0.00D+00 EMaxC= 1.00D+00 BMatC= 0.00D+00 BMatP= 2.77D-09
 Rises=F IDIUse=1 WtCom= 1.00D+00 WtEn= 0.00D+00
 Coeff-Com:  0.000D+00 0.000D+00 0.100D+01
 Coeff:      0.000D+00 0.000D+00 0.100D+01
 Gap=     1.250 Goal=     0.100 Shift=    0.000
 Skip diagonalization as Alpha Fock matrix is already diagonal.
 RMSDP=1.08D-10 MaxDP=1.53D-10 DE=-9.82D-09 OVMax= 0.00D+00

 SCF Done:  E(RHF) =  -1.11675930751     A.U. after    6 cycles
            NFock=  6  Conv=0.11D-09     -V/T= 1.9296
 KE=           1.201287 PE=          -3.707907 EE=           0.674756
 Leave Link  502 at Sat Aug  2 15:34:38 2025, MaxMem= 12348030976 cpu:               2.2 elap:               0.1
 (Enter /home/hhratchian/gaussian/gdv-20250101-j30+/gdv/l601.exe)
 Copying SCF densities to generalized density rwf, IOpCl= 0 IROHF=0.
 
 **********************************************************************
 
               Population analysis using the SCF Density.
 
 **********************************************************************
 
 Orbital symmetries:
       Occupied  (SGG)
       Virtual   (SGU)
 The electronic state is 1-SGG.
 Alpha  occ. eigenvalues --       -0.57855
 Alpha virt. eigenvalues --        0.67114
          Condensed to atoms (all electrons):
               1          2
     1  H    0.602456   0.397544
     2  H    0.397544   0.602456
 Mulliken charges:
               1
     1  H   -0.000000
     2  H   -0.000000
 Sum of Mulliken charges=  -0.00000
 Mulliken charges with hydrogens summed into heavy atoms:
               1
 Electronic spatial extent (au):  <R**2>=              4.7861
 Charge=             -0.0000 electrons
 Dipole moment (field-independent basis, Debye):
    X=             -0.0000    Y=              0.0000    Z=              0.0000  Tot=              0.0000
 Quadrupole moment (field-independent basis, Debye-Ang):
   XX=             -1.8475   YY=             -1.8475   ZZ=             -1.4274
   XY=              0.0000   XZ=             -0.0000   YZ=              0.0000
 Traceless Quadrupole moment (field-independent basis, Debye-Ang):
   XX=             -0.1401   YY=             -0.1401   ZZ=              0.2801
   XY=              0.0000   XZ=             -0.0000   YZ=              0.0000
 Octapole moment (field-independent basis, Debye-Ang**2):
  XXX=             -0.0000  YYY=              0.0000  ZZZ=             -0.0000  XYY=             -0.0000
  XXY=              0.0000  XXZ=              0.0000  XZZ=             -0.0000  YZZ=              0.0000
  YYZ=              0.0000  XYZ=              0.0000
 Hexadecapole moment (field-independent basis, Debye-Ang**3):
 XXXX=             -1.5300 YYYY=             -1.5300 ZZZZ=             -2.4115 XXXY=              0.0000
 XXXZ=              0.0000 YYYX=              0.0000 YYYZ=              0.0000 ZZZX=              0.0000
 ZZZY=              0.0000 XXYY=             -0.5100 XXZZ=             -0.6678 YYZZ=             -0.6678
 XXYZ=              0.0000 YYXZ=              0.0000 ZZXY=              0.0000
 N-N=           0.715104 E-N=          -3.707907  KE=           1.201287
 Symmetry AG   KE=           1.201287
 Symmetry B1G  KE=           0.000000
 Symmetry B2G  KE=           0.000000
 Symmetry B3G  KE=           0.000000
 Symmetry AU   KE=           0.000000
 Symmetry B1U  KE=           0.000000
 Symmetry B2U  KE=           0.000000
 Symmetry B3U  KE=           0.000000
 No NMR shielding tensors so no spin-rotation constants.
 Leave Link  601 at Sat Aug  2 15:34:39 2025, MaxMem= 12348030976 cpu:               1.4 elap:               0.1
 (Enter /home/hhratchian/gaussian/gdv-20250101-j30+/gdv/l801.exe)
 Range of M.O.s used for correlation:     1     2
 NBasis=     2 NAE=     1 NBE=     1 NFC=     0 NFV=     0
 NROrb=      2 NOA=     1 NOB=     1 NVA=     1 NVB=     1
 Leave Link  801 at Sat Aug  2 15:34:39 2025, MaxMem= 12348030976 cpu:               0.3 elap:               0.0
 (Enter /home/hhratchian/gaussian/gdv-20250101-j30+/gdv/l914.exe)
 RHF ground state
 Doing stability rather than CIS.
 Keep R1 and R2 ints in memory in symmetry-blocked form, NReq=11203327.
 FoFCou: FMM=F IPFlag=           0 FMFlag=           0 FMFlg1=           0
         NFxFlg=           0 DoJE=F BraDBF=F KetDBF=F FulRan=T
         wScrn=  0.000000 ICntrl=       600 IOpCl=  0 I1Cent=           0 NGrid=           0
         NMat0=    1 NMatS0=      3 NMatT0=    0 NMatD0=    1 NMtDS0=    0 NMtDT0=    0
 Petite list used in FoFCou.
 MDV= 12348030976 DFT=F IDoStb=1 Mixed=F DoRPA=F DoScal=F NonHer=F
 Making orbital integer symmetry assigments:
 Orbital symmetries:
       Occupied  (SGG)
       Virtual   (SGU)
     2 initial guesses have been made.
 Convergence on wavefunction:    0.001000000000000
 Davidson Disk Diagonalization:  ConvIn= 1.00D-03 SkipCon=T Conv= 1.00D-03.
 Max sub-space:     8 initial roots:     4 roots to seek:     1 dimension of matrix:            2
 *** WARNING: Number of orthogonal guesses is            2
 Iteration     1 Dimension     2 NMult     0 NNew      2
 CISAX will form     2 AO SS matrices at one time.
 NMat=     2 NSing=     1 JSym2X= 2.
 New state      1 was old state      2
 Excitation Energies [eV] at current iteration:
 Root      1 :    11.014501485679476
 Root      2 :    30.738452029605977
 Convergence achieved for final wavefunctions.
 1PDM for each excited state written to RWF  633
 Ground to excited state transition densities written to RWF  633

 ***********************************************************************
 Stability analysis using <AA,BB:AA,BB> singles matrix:
 ***********************************************************************

 Eigenvectors of the stability matrix:
 
 Eigenvector   1:      Triplet-SGU  Eigenvalue= 0.4047755  <S**2>=2.000
       1 ->  2         0.70711
 The wavefunction is stable under the perturbations considered.
 Leave Link  914 at Sat Aug  2 15:34:39 2025, MaxMem= 12348030976 cpu:               2.5 elap:               0.1
 (Enter /home/hhratchian/gaussian/gdv-20250101-j30+/gdv/l508.exe)
 The wavefunction is already stable.
 Leave Link  508 at Sat Aug  2 15:34:39 2025, MaxMem= 12348030976 cpu:               0.1 elap:               0.0
 (Enter /home/hhratchian/gaussian/gdv-20250101-j30+/gdv/l601.exe)
 Copying SCF densities to generalized density rwf, IOpCl= 0 IROHF=0.
 
 **********************************************************************
 
               Population analysis using the SCF Density.
 
 **********************************************************************
 
 Orbital symmetries:
       Occupied  (SGG)
       Virtual   (SGU)
 The electronic state is 1-SGG.
 Alpha  occ. eigenvalues --       -0.57855
 Alpha virt. eigenvalues --        0.67114
          Condensed to atoms (all electrons):
               1          2
     1  H    0.602456   0.397544
     2  H    0.397544   0.602456
 Mulliken charges:
               1
     1  H   -0.000000
     2  H   -0.000000
 Sum of Mulliken charges=  -0.00000
 Mulliken charges with hydrogens summed into heavy atoms:
               1
 Electronic spatial extent (au):  <R**2>=              4.7861
 Charge=             -0.0000 electrons
 Dipole moment (field-independent basis, Debye):
    X=             -0.0000    Y=              0.0000    Z=              0.0000  Tot=              0.0000
 Quadrupole moment (field-independent basis, Debye-Ang):
   XX=             -1.8475   YY=             -1.8475   ZZ=             -1.4274
   XY=              0.0000   XZ=             -0.0000   YZ=              0.0000
 Traceless Quadrupole moment (field-independent basis, Debye-Ang):
   XX=             -0.1401   YY=             -0.1401   ZZ=              0.2801
   XY=              0.0000   XZ=             -0.0000   YZ=              0.0000
 Octapole moment (field-independent basis, Debye-Ang**2):
  XXX=             -0.0000  YYY=              0.0000  ZZZ=             -0.0000  XYY=             -0.0000
  XXY=              0.0000  XXZ=              0.0000  XZZ=             -0.0000  YZZ=              0.0000
  YYZ=              0.0000  XYZ=              0.0000
 Hexadecapole moment (field-independent basis, Debye-Ang**3):
 XXXX=             -1.5300 YYYY=             -1.5300 ZZZZ=             -2.4115 XXXY=              0.0000
 XXXZ=              0.0000 YYYX=              0.0000 YYYZ=              0.0000 ZZZX=              0.0000
 ZZZY=              0.0000 XXYY=             -0.5100 XXZZ=             -0.6678 YYZZ=             -0.6678
 XXYZ=              0.0000 YYXZ=              0.0000 ZZXY=              0.0000
 N-N=           0.715104 E-N=          -3.707907  KE=           1.201287
 Symmetry AG   KE=           1.201287
 Symmetry B1G  KE=           0.000000
 Symmetry B2G  KE=           0.000000
 Symmetry B3G  KE=           0.000000
 Symmetry AU   KE=           0.000000
 Symmetry B1U  KE=           0.000000
 Symmetry B2U  KE=           0.000000
 Symmetry B3U  KE=           0.000000
 No NMR shielding tensors so no spin-rotation constants.
 Leave Link  601 at Sat Aug  2 15:34:39 2025, MaxMem= 12348030976 cpu:               2.5 elap:               0.1
 (Enter /home/hhratchian/gaussian/gdv-20250101-j30+/gdv/local/l9999.exe)
 Unable to Open any file for archive entry.
 1\1\GINC-HMNODE006\Stability\RHF\STO-3G\H2\AABOUTAKA\02-Aug-2025\0\\#P
  HF/STO-3G SCF=(fermi,novaracc) Guess=Mix Stable=Opt\\Initial Stabilit
 y Check for H2\\0,1\H,0,0.,0.,0.\H,0,0.,0.,0.74\\Version=ES64L-GDVRevJ
 .30+\State=1-SGG\HF=-1.1167593\RMSD=1.080e-10\Dipole=0.,0.,0.\Quadrupo
 le=-0.1041286,-0.1041286,0.2082572,0.,0.,0.\PG=D*H [C*(H1.H1)]\\@
 The archive entry for this job was punched.


 I am not a vegetarian because I love animals;
 I am a vegetarian because I hate plants.
                               -- A. Whitney Brown
 Job cpu time:       0 days  0 hours  0 minutes 22.3 seconds.
 Elapsed time:       0 days  0 hours  0 minutes  1.0 seconds.
 File lengths (MBytes):  RWF=     22 Int=      0 D2E=      0 Chk=      2 Scr=      2
 Normal termination of Gaussian DV at Sat Aug  2 15:34:39 2025.
 Initial command:
 /home/hhratchian/gaussian/gdv-20250101-j30+/gdv/local/l1.exe "/scratch/aaboutaka/1562802/Gau-75029.inp" -scrdir="/scratch/aaboutaka/1562802/"
 Default is to use a total of  56 processors:
                               56 via shared-memory
                                1 via Linda
 Entering Link 1 = /home/hhratchian/gaussian/gdv-20250101-j30+/gdv/local/l1.exe PID=     75801.
  
 Copyright (c) 1988-2024, Gaussian, Inc.  All Rights Reserved.
  
 This is the private, development version of
 the Gaussian(R) DV system of programs. It is based on
 the Gaussian(R) 16 system (copyright 2016, Gaussian, Inc.),
 the Gaussian(R) 09 system (copyright 2009, Gaussian, Inc.),
 the Gaussian(R) 03 system (copyright 2003, Gaussian, Inc.),
 the Gaussian(R) 98 system (copyright 1998, Gaussian, Inc.),
 the Gaussian(R) 94 system (copyright 1995, Gaussian, Inc.),
 the Gaussian 92(TM) system (copyright 1992, Gaussian, Inc.),
 the Gaussian 90(TM) system (copyright 1990, Gaussian, Inc.),
 the Gaussian 88(TM) system (copyright 1988, Gaussian, Inc.),
 the Gaussian 86(TM) system (copyright 1986, Carnegie Mellon
 University), and the Gaussian 82(TM) system (copyright 1983,
 Carnegie Mellon University). Gaussian is a federally registered
 trademark of Gaussian, Inc.
  
 This software contains proprietary and confidential information,
 including trade secrets, belonging to Gaussian, Inc.
  
 This software is provided under written license and may be
 used, copied, transmitted, or stored only in accord with that
 written license.
  
 The following legend is applicable only to US Government
 contracts under FAR:
  
                    RESTRICTED RIGHTS LEGEND
  
 Use, reproduction and disclosure by the US Government is
 subject to restrictions as set forth in subparagraphs (a)
 and (c) of the Commercial Computer Software - Restricted
 Rights clause in FAR 52.227-19.
  
 Gaussian, Inc.
 340 Quinnipiac St., Bldg. 40, Wallingford CT 06492
  
  
 ---------------------------------------------------------------
 Warning -- This program may not be used in any manner that
 competes with the business of Gaussian, Inc. or will provide
 assistance to any competitor of Gaussian, Inc.  The licensee
 of this program is prohibited from giving any competitor of
 Gaussian, Inc. access to this program.  By using this program,
 the user acknowledges that Gaussian, Inc. is engaged in the
 business of creating and licensing software in the field of
 computational chemistry and represents and warrants to the
 licensee that it is not a competitor of Gaussian, Inc. and that
 it will not use this program in any manner prohibited above.
 ---------------------------------------------------------------
  

 Cite this work as:
 Gaussian Development Version, Revision J.30+,
 M. J. Frisch, G. W. Trucks, G. Scalmani, J. R. Cheeseman, X. Li, 
 J. Bloino, B. G. Janesko, A. V. Marenich, J. Zheng, F. Lipparini, 
 A. Jenkins, A. Liu, H. Liu, H. B. Schlegel, G. E. Scuseria, 
 M. A. Robb, V. Barone, G. A. Petersson, H. Nakatsuji, B. Mennucci, 
 C. Adamo, N. Rega, M. Caricato, H. P. Hratchian, J. V. Ortiz, 
 F. Pawlowski, A. F. Izmaylov, H. Hu, C. Liao, J. L. Sonnenberg, 
 D. Williams-Young, F. Ding, R. Gomperts, F. Egidi, J. Goings, 
 B. Peng, A. Petrone, T. Henderson, D. Ranasinghe, V. G. Zakrzewski, 
 J. Gao, G. Zheng, W. Liang, M. Hada, M. Ehara, K. Toyota, R. Fukuda, 
 J. Hasegawa, M. Ishida, T. Nakajima, Y. Honda, O. Kitao, H. Nakai, 
 T. Vreven, K. Throssell, J. A. Montgomery, Jr., J. E. Peralta, 
 F. Ogliaro, M. J. Bearpark, J. J. Heyd, E. N. Brothers, K. N. Kudin, 
 V. N. Staroverov, T. A. Keith, R. Kobayashi, J. Normand, 
 K. Raghavachari, A. P. Rendell, J. C. Burant, S. S. Iyengar, 
 M. Cossi, J. M. Millam, M. Klene, R. Cammi, R. L. Martin, O. Farkas, 
 J. B. Foresman, and D. J. Fox, Gaussian, Inc., Wallingford CT, 2024.
 
 *******************************************
 Gaussian DV:  ES64L-GDVRevJ.30+ 18-Dec-2024
                  2-Aug-2025 
 *******************************************
 %Chk=H2_HF_STO3G.chk
 ----------------------------------------------------------------------
 #P HF chkbasis Geom=AllCheck Guess=Read Opt Freq SCF=(fermi, novaracc)
  int=superfinegrid
 ----------------------------------------------------------------------
 1/18=20,19=15,29=7,38=1/1,3;
 2/9=110,12=2/2;
 3/5=7,6=2,11=9,14=-4,25=1,30=1,67=1,71=1,75=-7,116=-2/1,2,3;
 4/5=1/1;
 5/5=2,22=13,38=6/2;
 6/7=2,8=2,9=2,10=2,28=1/1;
 7//1,2,3,16;
 1/18=20,19=15/3(2);
 2/9=110/2;
 99//99;
 2/9=110/2;
 3/5=7,6=1,11=9,14=-2,25=1,30=1,71=1,75=-7,82=7,187=7/1,2,3;
 4/5=5,16=3,69=1/1;
 5/5=2,22=13,38=1/2;
 7//1,2,3,16;
 1/18=20,19=15/3(-5);
 2/9=110/2;
 6/7=2,8=2,9=2,10=2,19=2,28=1/1;
 99/9=1/99;
 Leave Link    1 at Sat Aug  2 15:34:39 2025, MaxMem=           0 cpu:               0.3 elap:               0.0
 (Enter /home/hhratchian/gaussian/gdv-20250101-j30+/gdv/local/l101.exe)
 
  Hrant - IAPOps =                         0
  Hrant - IAPOp1 =                         0
  Hrant - IAPOp2 =                         0
  Hrant - DoAP   =   F
 
 Structure from the checkpoint file:  "H2_HF_STO3G.chk"
 ------------------------------
 Initial Stability Check for H2
 ------------------------------
 Charge =     0 Multiplicity =     1
 Z-Matrix found in chk file.
 H,0,0.,0.,0.
 H,0,0.,0.,0.74
 
 Recover connectivity data from disk.
 Initializing the GIC definitions file.
 ITRead=  0  0
 MicOpt= -1 -1
 NAtoms=      2 NQM=        2 NQMF=       0 NMMI=      0 NMMIF=      0
                NMic=       0 NMicF=      0.
                    Isotopes and Nuclear Properties:
 (Nuclear quadrupole moments (NQMom) in fm**2, nuclear magnetic moments (NMagM)
  in nuclear magnetons)

  Atom         1           2
 IAtWgt=           1           1
 AtmWgt=   1.0078250   1.0078250
 NucSpn=           1           1
 AtZEff=    1.000000    1.000000
 NQMom=    0.0000000   0.0000000
 NMagM=    2.7928460   2.7928460
 AtZNuc=   1.0000000   1.0000000
 Leave Link  101 at Sat Aug  2 15:34:42 2025, MaxMem= 12348030976 cpu:               5.2 elap:               3.4
 (Enter /home/hhratchian/gaussian/gdv-20250101-j30+/gdv/l103.exe)

 GradGradGradGradGradGradGradGradGradGradGradGradGradGradGradGradGradGrad
 Berny optimization.
 Initialization pass.
                           ----------------------------
                           !    Initial Parameters    !
                           ! (Angstroms and Degrees)  !
 --------------------------                            --------------------------
 ! Name  Definition              Value          Derivative Info.                !
 --------------------------------------------------------------------------------
 ! R1    R(1,2)                  0.74           estimate D2E/DX2                !
 --------------------------------------------------------------------------------
 Trust Radius=3.00D-01 FncErr=1.00D-07 GrdErr=1.00D-07 EigMax=2.50D+02 EigMin=1.00D-04
 Number of steps in this run=     20 maximum allowed number of steps=    100.
 GradGradGradGradGradGradGradGradGradGradGradGradGradGradGradGradGradGrad

 Leave Link  103 at Sat Aug  2 15:34:42 2025, MaxMem= 12348030976 cpu:               1.3 elap:               0.0
 (Enter /home/hhratchian/gaussian/gdv-20250101-j30+/gdv/l202.exe)
                          Input orientation:                          
 ---------------------------------------------------------------------
 Center     Atomic      Atomic             Coordinates (Angstroms)
 Number     Number       Type             X           Y           Z
 ---------------------------------------------------------------------
      1          1           0        0.000000    0.000000    0.000000
      2          1           0        0.000000    0.000000    0.740000
 ---------------------------------------------------------------------
 Stoichiometry    H2
 Framework group  D*H[C*(H.H)]
 Deg. of freedom     1
 Full point group                 D*H     NOp   8
 RotChk:  IX=0 Diff= 0.00D+00
 Largest Abelian subgroup         D2H     NOp   8
 Largest concise Abelian subgroup C2      NOp   2
                         Standard orientation:                         
 ---------------------------------------------------------------------
 Center     Atomic      Atomic             Coordinates (Angstroms)
 Number     Number       Type             X           Y           Z
 ---------------------------------------------------------------------
      1          1           0        0.000000    0.000000    0.370000
      2          1           0        0.000000    0.000000   -0.370000
 ---------------------------------------------------------------------
 Rotational constants (GHZ):           0.0000000        1831.4649542        1831.4649542
 Leave Link  202 at Sat Aug  2 15:34:42 2025, MaxMem= 12348030976 cpu:               1.5 elap:               0.1
 (Enter /home/hhratchian/gaussian/gdv-20250101-j30+/gdv/local/l301.exe)
 Basis read from chk: "H2_HF_STO3G.chk" (5D, 7F)
 No pseudopotential information found on chk file.
 There are     1 symmetry adapted cartesian basis functions of AG  symmetry.
 There are     0 symmetry adapted cartesian basis functions of B1G symmetry.
 There are     0 symmetry adapted cartesian basis functions of B2G symmetry.
 There are     0 symmetry adapted cartesian basis functions of B3G symmetry.
 There are     0 symmetry adapted cartesian basis functions of AU  symmetry.
 There are     1 symmetry adapted cartesian basis functions of B1U symmetry.
 There are     0 symmetry adapted cartesian basis functions of B2U symmetry.
 There are     0 symmetry adapted cartesian basis functions of B3U symmetry.
 There are     1 symmetry adapted basis functions of AG  symmetry.
 There are     0 symmetry adapted basis functions of B1G symmetry.
 There are     0 symmetry adapted basis functions of B2G symmetry.
 There are     0 symmetry adapted basis functions of B3G symmetry.
 There are     0 symmetry adapted basis functions of AU  symmetry.
 There are     1 symmetry adapted basis functions of B1U symmetry.
 There are     0 symmetry adapted basis functions of B2U symmetry.
 There are     0 symmetry adapted basis functions of B3U symmetry.
     2 basis functions,     6 primitive gaussians,     2 cartesian basis functions
     1 alpha electrons        1 beta electrons
       nuclear repulsion energy         0.7151043391 Hartrees.
 IExCor=         0 DFT=F Ex=HF Corr=None N6=None ScaHFX=  1.000000
 ScaDFX=  1.000000  1.000000  1.000000  1.000000  1.000000  0.000000
 ScaDFX=  0.000000  0.000000  0.000000  0.000000  0.000000  0.000000
 Grid=SuperFine IRanWt=     -1 IRanGd=            0 ICorTp=0 IEDCtl=  2004
 NAtoms=    2 NActive=    2 NUniq=    1 SFac= 4.00D+00 NAtFMM=   60 NAOKFM=F Big=F
 Integral buffers will be    131072 words long.
 Raffenetti 1 integral format.
 Two-electron integral symmetry is turned on.
 No density basis found on file 200724.
 Leave Link  301 at Sat Aug  2 15:34:43 2025, MaxMem= 12348030976 cpu:               0.5 elap:               0.1
 (Enter /home/hhratchian/gaussian/gdv-20250101-j30+/gdv/l302.exe)
 NPDir=0 NMtPBC=     1 NCelOv=     1 NCel=       1 NClECP=     1 NCelD=      1
         NCelK=      1 NCelE2=     1 NClLst=     1 CellRange=     0.0.
 One-electron integrals computed using PRISM.
 One-electron integral symmetry used in STVInt
 NBasis=     2 RedAO= T EigKep=  3.40D-01  NBF=     1     0     0     0     0     1     0     0
 NBsUse=     2 1.00D-06 EigRej= -1.00D+00 NBFU=     1     0     0     0     0     1     0     0
 Leave Link  302 at Sat Aug  2 15:34:43 2025, MaxMem= 12348030976 cpu:               2.1 elap:               0.1
 (Enter /home/hhratchian/gaussian/gdv-20250101-j30+/gdv/l303.exe)
 DipDrv:  MaxL=1.
 Leave Link  303 at Sat Aug  2 15:34:43 2025, MaxMem= 12348030976 cpu:               0.2 elap:               0.0
 (Enter /home/hhratchian/gaussian/gdv-20250101-j30+/gdv/l401.exe)
 Initial guess from the checkpoint file:  "H2_HF_STO3G.chk"
 B after Tr=     0.000000    0.000000    0.000000
         Rot=    1.000000    0.000000    0.000000    0.000000 Ang=   0.00 deg.
 AO Guess basis will be translated and rotated to current coordinates.
 JPrj=2 DoOrth=T DoCkMO=T.
 Initial guess orbital symmetries:
       Occupied  (SGG)
       Virtual   (SGU)
 The electronic state of the initial guess is 1-SGG.
 Leave Link  401 at Sat Aug  2 15:34:43 2025, MaxMem= 12348030976 cpu:               0.3 elap:               0.1
 (Enter /home/hhratchian/gaussian/gdv-20250101-j30+/gdv/local/l502.exe)
 Keep R1 ints in memory in symmetry-blocked form, NReq=11202978.
 FoFCou: FMM=F IPFlag=           0 FMFlag=           0 FMFlg1=           0
         NFxFlg=           0 DoJE=F BraDBF=F KetDBF=F FulRan=T
         wScrn=  0.000000 ICntrl=       600 IOpCl=  0 I1Cent=           0 NGrid=           0
         NMat0=    1 NMatS0=      3 NMatT0=    0 NMatD0=    1 NMtDS0=    0 NMtDT0=    0
 Petite list used in FoFCou.
 Closed shell SCF:
 Using DIIS extrapolation, IDIIS=    10.
 NGot= 12348030976 LenX= 12348028340 LenY= 12348027458
 Requested convergence on RMS density matrix=1.00D-08 within 128 cycles.
 Requested convergence on MAX density matrix=1.00D-06.
 Requested convergence on             energy=1.00D-06.
 Level shift goal  0.100 maximum shift  0.100.
 No special actions if energy rises.
 Dynamic level shift is on during FON iterations.
 
  Hrant - CycOpn.
 

 Cycle   1  Pass 1  IDiag  1:
 E= -1.11675930751027    
 DIIS: error= 0.00D+00 at cycle   1 NSaved=   1.
 NSaved= 1 IEnMin= 1 EnMin= -1.11675930751027     IErMin= 1 ErrMin= 0.00D+00
 ErrMax= 0.00D+00  0.00D+00 EMaxC= 1.00D+00 BMatC= 0.00D+00 BMatP= 0.00D+00
 Rises=F IDIUse=1 WtCom= 1.00D+00 WtEn= 0.00D+00
 Coeff-Com:  0.100D+01
 Coeff:      0.100D+01
 Gap=     1.250 Goal=     0.100 Shift=    0.000
 Skip diagonalization as Alpha Fock matrix is already diagonal.
 RMSDP=0.00D+00 MaxDP=0.00D+00              OVMax= 0.00D+00

 SCF Done:  E(RHF) =  -1.11675930751     A.U. after    1 cycles
            NFock=  1  Conv=0.00D+00     -V/T= 1.9296
 KE=           1.201287 PE=          -3.707907 EE=           0.674756
 Leave Link  502 at Sat Aug  2 15:34:43 2025, MaxMem= 12348030976 cpu:               2.8 elap:               0.1
 (Enter /home/hhratchian/gaussian/gdv-20250101-j30+/gdv/l601.exe)
 Copying SCF densities to generalized density rwf, IOpCl= 0 IROHF=0.
 
 **********************************************************************
 
               Population analysis using the SCF Density.
 
 **********************************************************************
 
 Orbital symmetries:
       Occupied  (SGG)
       Virtual   (SGU)
 The electronic state is 1-SGG.
 Alpha  occ. eigenvalues --       -0.57855
 Alpha virt. eigenvalues --        0.67114
          Condensed to atoms (all electrons):
               1          2
     1  H    0.602456   0.397544
     2  H    0.397544   0.602456
 Mulliken charges:
               1
     1  H   -0.000000
     2  H   -0.000000
 Sum of Mulliken charges=  -0.00000
 Mulliken charges with hydrogens summed into heavy atoms:
               1
 Electronic spatial extent (au):  <R**2>=              4.7861
 Charge=             -0.0000 electrons
 Dipole moment (field-independent basis, Debye):
    X=             -0.0000    Y=              0.0000    Z=             -0.0000  Tot=              0.0000
 Quadrupole moment (field-independent basis, Debye-Ang):
   XX=             -1.8475   YY=             -1.8475   ZZ=             -1.4274
   XY=              0.0000   XZ=             -0.0000   YZ=              0.0000
 Traceless Quadrupole moment (field-independent basis, Debye-Ang):
   XX=             -0.1401   YY=             -0.1401   ZZ=              0.2801
   XY=              0.0000   XZ=             -0.0000   YZ=              0.0000
 Octapole moment (field-independent basis, Debye-Ang**2):
  XXX=             -0.0000  YYY=              0.0000  ZZZ=             -0.0000  XYY=             -0.0000
  XXY=              0.0000  XXZ=              0.0000  XZZ=             -0.0000  YZZ=              0.0000
  YYZ=              0.0000  XYZ=              0.0000
 Hexadecapole moment (field-independent basis, Debye-Ang**3):
 XXXX=             -1.5300 YYYY=             -1.5300 ZZZZ=             -2.4115 XXXY=              0.0000
 XXXZ=              0.0000 YYYX=              0.0000 YYYZ=              0.0000 ZZZX=              0.0000
 ZZZY=              0.0000 XXYY=             -0.5100 XXZZ=             -0.6678 YYZZ=             -0.6678
 XXYZ=              0.0000 YYXZ=              0.0000 ZZXY=              0.0000
 N-N=           0.715104 E-N=          -3.707907  KE=           1.201287
 Symmetry AG   KE=           1.201287
 Symmetry B1G  KE=           0.000000
 Symmetry B2G  KE=           0.000000
 Symmetry B3G  KE=           0.000000
 Symmetry AU   KE=           0.000000
 Symmetry B1U  KE=           0.000000
 Symmetry B2U  KE=           0.000000
 Symmetry B3U  KE=           0.000000
 No NMR shielding tensors so no spin-rotation constants.
 Leave Link  601 at Sat Aug  2 15:34:43 2025, MaxMem= 12348030976 cpu:               2.2 elap:               0.1
 (Enter /home/hhratchian/gaussian/gdv-20250101-j30+/gdv/l701.exe)
 ... and contract with generalized density number  0.
 Compute integral first derivatives.
 Leave Link  701 at Sat Aug  2 15:34:43 2025, MaxMem= 12348030976 cpu:               3.5 elap:               0.1
 (Enter /home/hhratchian/gaussian/gdv-20250101-j30+/gdv/l702.exe)
 L702 exits ... SP integral derivatives will be done elsewhere.
 Leave Link  702 at Sat Aug  2 15:34:43 2025, MaxMem= 12348030976 cpu:               0.1 elap:               0.0
 (Enter /home/hhratchian/gaussian/gdv-20250101-j30+/gdv/l703.exe)
 Integral derivatives from FoFJK, PRISM(SPDF).
 Compute integral first derivatives, UseDBF=F ICtDFT=           0.
 Calling FoFJK, ICntrl=      2127 FMM=F ISym2X=1 I1Cent= 0 IOpClX= 0 NMat=1 NMatS=1 NMatT=0.
 FoFJK:  IHMeth= 1 ICntrl=    2127 DoSepK=F KAlg= 0 I1Cent=           0 FoldK=F
 IRaf=         0 NMat=       1 IRICut=       1 DoRegI=T DoRafI=F ISym2E= 1 IDoP0=0 IntGTp=1.
 FoFCou: FMM=F IPFlag=           0 FMFlag=      100000 FMFlg1=         800
         NFxFlg=           0 DoJE=F BraDBF=F KetDBF=F FulRan=T
         wScrn=  0.000000 ICntrl=      2127 IOpCl=  0 I1Cent=           0 NGrid=           0
         NMat0=    1 NMatS0=      1 NMatT0=    0 NMatD0=    1 NMtDS0=    0 NMtDT0=    0
 Petite list used in FoFCou.
 Leave Link  703 at Sat Aug  2 15:34:43 2025, MaxMem= 12348030976 cpu:               2.3 elap:               0.1
 (Enter /home/hhratchian/gaussian/gdv-20250101-j30+/gdv/l716.exe)
 Dipole        =-8.62816615D-32 0.00000000D+00-1.11022302D-16
 ***** Axes restored to original set *****
 -------------------------------------------------------------------
 Center     Atomic                   Forces (Hartrees/Bohr)
 Number     Number              X              Y              Z
 -------------------------------------------------------------------
      1        1           0.000000000    0.000000000    0.027679599
      2        1          -0.000000000   -0.000000000   -0.027679599
 -------------------------------------------------------------------
 Cartesian Forces:  Max     0.027679599 RMS     0.015980824
 Leave Link  716 at Sat Aug  2 15:34:43 2025, MaxMem= 12348030976 cpu:               1.3 elap:               0.1
 (Enter /home/hhratchian/gaussian/gdv-20250101-j30+/gdv/l103.exe)

 GradGradGradGradGradGradGradGradGradGradGradGradGradGradGradGradGradGrad
 Berny optimization.
 FormGI is forming the generalized inverse of G from B-inverse, IUseBI=4.
 NTrRot=    -1 NTRed=     1 NAtoms=     2 NSkip=     0 NRank=     1 IsLin=T EigSml=2.0000D+00
 Internal  Forces:  Max     0.027679599 RMS     0.027679599
 Search for a local minimum.
 Step number   1 out of a maximum of   20
 All quantities printed in internal units (Hartrees-Bohrs-Radians)
 RMS Force = .27680D-01 SwitMx=.10000D-02 MixMth= 1
 Mixed Optimization -- RFO/linear search
 Second derivative matrix not updated -- first step.
 The second derivative matrix:
                          R1
           R1           0.39139
 ITU=  0
     Eigenvalues ---    0.39139
 RFO step:  Lambda=-1.94782188D-03 EMin= 3.91394213D-01
 Linear search not attempted -- first point.
 GrdOpt: GIC=T ITstSp=  0 NP=   1 DidLin=F DidDIS=F IDoGRo=0 IDoRot=0
         ISwap=1 XLin= 0.000 DXMaxT= 0.300
 Iteration  1 RMS(Cart)=  0.02031416 RMS(Int)=  0.00000000
 Iteration  2 RMS(Cart)=  0.00000000 RMS(Int)=  0.00000000
 ClnCor:  largest displacement from symmetrization is 1.40D-17 for atom     1.
 Variable       Old X    -DE/DX   Delta X   Delta X   Delta X     New X
                                 (Linear)    (Quad)   (Total)
    R1        1.39840  -0.02768   0.00000  -0.07037  -0.07037   1.32803
         Item               Value     Threshold  Converged?
 Maximum Force            0.027680     0.000450     NO 
 RMS     Force            0.027680     0.000300     NO 
 Maximum Displacement     0.035185     0.001800     NO 
 RMS     Displacement     0.049759     0.001200     NO 
 Predicted change in Energy=-9.787337D-04
 Lowest energy point so far.  Saving SCF results.
 GradGradGradGradGradGradGradGradGradGradGradGradGradGradGradGradGradGrad

 Leave Link  103 at Sat Aug  2 15:34:43 2025, MaxMem= 12348030976 cpu:               1.4 elap:               0.1
 (Enter /home/hhratchian/gaussian/gdv-20250101-j30+/gdv/l202.exe)
                          Input orientation:                          
 ---------------------------------------------------------------------
 Center     Atomic      Atomic             Coordinates (Angstroms)
 Number     Number       Type             X           Y           Z
 ---------------------------------------------------------------------
      1          1           0        0.000000    0.000000    0.018619
      2          1           0        0.000000    0.000000    0.721381
 ---------------------------------------------------------------------
 Stoichiometry    H2
 Framework group  D*H[C*(H.H)]
 Deg. of freedom     1
 Full point group                 D*H     NOp   8
 RotChk:  IX=0 Diff= 0.00D+00
 Largest Abelian subgroup         D2H     NOp   8
 Largest concise Abelian subgroup C2      NOp   2
                         Standard orientation:                         
 ---------------------------------------------------------------------
 Center     Atomic      Atomic             Coordinates (Angstroms)
 Number     Number       Type             X           Y           Z
 ---------------------------------------------------------------------
      1          1           0        0.000000    0.000000    0.351381
      2          1           0        0.000000    0.000000   -0.351381
 ---------------------------------------------------------------------
 Rotational constants (GHZ):           0.0000000        2030.7008926        2030.7008926
 Leave Link  202 at Sat Aug  2 15:34:43 2025, MaxMem= 12348030976 cpu:               1.5 elap:               0.0
 (Enter /home/hhratchian/gaussian/gdv-20250101-j30+/gdv/local/l301.exe)
 Basis read from rwf:  (5D, 7F)
 No pseudopotential information found on rwf file.
 There are     1 symmetry adapted cartesian basis functions of AG  symmetry.
 There are     0 symmetry adapted cartesian basis functions of B1G symmetry.
 There are     0 symmetry adapted cartesian basis functions of B2G symmetry.
 There are     0 symmetry adapted cartesian basis functions of B3G symmetry.
 There are     0 symmetry adapted cartesian basis functions of AU  symmetry.
 There are     1 symmetry adapted cartesian basis functions of B1U symmetry.
 There are     0 symmetry adapted cartesian basis functions of B2U symmetry.
 There are     0 symmetry adapted cartesian basis functions of B3U symmetry.
 There are     1 symmetry adapted basis functions of AG  symmetry.
 There are     0 symmetry adapted basis functions of B1G symmetry.
 There are     0 symmetry adapted basis functions of B2G symmetry.
 There are     0 symmetry adapted basis functions of B3G symmetry.
 There are     0 symmetry adapted basis functions of AU  symmetry.
 There are     1 symmetry adapted basis functions of B1U symmetry.
 There are     0 symmetry adapted basis functions of B2U symmetry.
 There are     0 symmetry adapted basis functions of B3U symmetry.
     2 basis functions,     6 primitive gaussians,     2 cartesian basis functions
     1 alpha electrons        1 beta electrons
       nuclear repulsion energy         0.7529967240 Hartrees.
 IExCor=         0 DFT=F Ex=HF Corr=None N6=None ScaHFX=  1.000000
 ScaDFX=  1.000000  1.000000  1.000000  1.000000  1.000000  0.000000
 ScaDFX=  0.000000  0.000000  0.000000  0.000000  0.000000  0.000000
 Grid=SuperFine IRanWt=     -1 IRanGd=            0 ICorTp=0 IEDCtl=  2004
 NAtoms=    2 NActive=    2 NUniq=    1 SFac= 4.00D+00 NAtFMM=   60 NAOKFM=F Big=F
 Integral buffers will be    131072 words long.
 Raffenetti 1 integral format.
 Two-electron integral symmetry is turned on.
 No density basis found on file    724.
 Leave Link  301 at Sat Aug  2 15:34:43 2025, MaxMem= 12348030976 cpu:               0.1 elap:               0.0
 (Enter /home/hhratchian/gaussian/gdv-20250101-j30+/gdv/l302.exe)
 NPDir=0 NMtPBC=     1 NCelOv=     1 NCel=       1 NClECP=     1 NCelD=      1
         NCelK=      1 NCelE2=     1 NClLst=     1 CellRange=     0.0.
 One-electron integrals computed using PRISM.
 One-electron integral symmetry used in STVInt
 NBasis=     2 RedAO= T EigKep=  3.16D-01  NBF=     1     0     0     0     0     1     0     0
 NBsUse=     2 1.00D-06 EigRej= -1.00D+00 NBFU=     1     0     0     0     0     1     0     0
 Leave Link  302 at Sat Aug  2 15:34:44 2025, MaxMem= 12348030976 cpu:               2.1 elap:               0.1
 (Enter /home/hhratchian/gaussian/gdv-20250101-j30+/gdv/l303.exe)
 DipDrv:  MaxL=1.
 Leave Link  303 at Sat Aug  2 15:34:44 2025, MaxMem= 12348030976 cpu:               1.3 elap:               0.0
 (Enter /home/hhratchian/gaussian/gdv-20250101-j30+/gdv/l401.exe)
 Initial guess from the checkpoint file:  "H2_HF_STO3G.chk"
 B after Tr=    -0.000000    0.000000    0.000000
         Rot=    1.000000    0.000000    0.000000    0.000000 Ang=   0.00 deg.
 AO Guess basis will be translated and rotated to current coordinates.
 JPrj=2 DoOrth=T DoCkMO=T.
 Initial guess orbital symmetries:
       Occupied  (SGG)
       Virtual   (SGU)
 The electronic state of the initial guess is 1-SGG.
 Generating alternative initial guess.
 ExpMin= 1.69D-01 ExpMax= 3.43D+00 ExpMxC= 3.43D+00 IAcc=3 Grid=SuperFine AccDes= 0.00D+00
 Harris functional with IExCor= 2005 and Grid=SuperFine diagonalized for initial guess.
 HarFok:  IExCor=    2005 AccDes= 0.00D+00 Grid=SuperFine IDoV= 1 UseB2=F ITyADJ=14 ICtDFT=  3500011
 FoFCou: FMM=F IPFlag=           0 FMFlag=      100000 FMFlg1=           0
         NFxFlg=           0 DoJE=T BraDBF=F KetDBF=T FulRan=T
         wScrn=  0.000000 ICntrl=       500 IOpCl=  0 I1Cent=   200000004 NGrid=           0
         NMat0=    1 NMatS0=      1 NMatT0=    0 NMatD0=    1 NMtDS0=    0 NMtDT0=    0
 Petite list used in FoFCou.
 Harris En= -1.17194274440528    
 Leave Link  401 at Sat Aug  2 15:34:44 2025, MaxMem= 12348030976 cpu:               2.5 elap:               0.1
 (Enter /home/hhratchian/gaussian/gdv-20250101-j30+/gdv/local/l502.exe)
 Keep R1 ints in memory in symmetry-blocked form, NReq=11202978.
 FoFCou: FMM=F IPFlag=           0 FMFlag=           0 FMFlg1=           0
         NFxFlg=           0 DoJE=F BraDBF=F KetDBF=F FulRan=T
         wScrn=  0.000000 ICntrl=       600 IOpCl=  0 I1Cent=           0 NGrid=           0
         NMat0=    1 NMatS0=      3 NMatT0=    0 NMatD0=    1 NMtDS0=    0 NMtDT0=    0
 Petite list used in FoFCou.
 Closed shell SCF:
 Using DIIS extrapolation, IDIIS=    10.
 NGot= 12348030976 LenX= 12348028340 LenY= 12348027458
 Requested convergence on RMS density matrix=1.00D-08 within 128 cycles.
 Requested convergence on MAX density matrix=1.00D-06.
 Requested convergence on             energy=1.00D-06.
 Level shift goal  0.100 maximum shift  0.100.
 No special actions if energy rises.
 Dynamic level shift is on during FON iterations.
 
  Hrant - CycOpn.
 

 Cycle   1  Pass 1  IDiag  1:
 E= -1.11741240166202    
 DIIS: error= 0.00D+00 at cycle   1 NSaved=   1.
 NSaved= 1 IEnMin= 1 EnMin= -1.11741240166202     IErMin= 1 ErrMin= 0.00D+00
 ErrMax= 0.00D+00  0.00D+00 EMaxC= 1.00D+00 BMatC= 0.00D+00 BMatP= 0.00D+00
 Rises=F IDIUse=1 WtCom= 1.00D+00 WtEn= 0.00D+00
 Coeff-Com:  0.100D+01
 Coeff:      0.100D+01
 Gap=     1.305 Goal=     0.100 Shift=    0.000
 Skip diagonalization as Alpha Fock matrix is already diagonal.
 RMSDP=0.00D+00 MaxDP=0.00D+00              OVMax= 0.00D+00

 SCF Done:  E(RHF) =  -1.11741240166     A.U. after    1 cycles
            NFock=  1  Conv=0.00D+00     -V/T= 1.9227
 KE=           1.210987 PE=          -3.763259 EE=           0.681863
 Leave Link  502 at Sat Aug  2 15:34:44 2025, MaxMem= 12348030976 cpu:               2.9 elap:               0.1
 (Enter /home/hhratchian/gaussian/gdv-20250101-j30+/gdv/l701.exe)
 ... and contract with generalized density number  0.
 Compute integral first derivatives.
 Leave Link  701 at Sat Aug  2 15:34:44 2025, MaxMem= 12348030976 cpu:               3.2 elap:               0.1
 (Enter /home/hhratchian/gaussian/gdv-20250101-j30+/gdv/l702.exe)
 L702 exits ... SP integral derivatives will be done elsewhere.
 Leave Link  702 at Sat Aug  2 15:34:44 2025, MaxMem= 12348030976 cpu:               1.3 elap:               0.1
 (Enter /home/hhratchian/gaussian/gdv-20250101-j30+/gdv/l703.exe)
 Integral derivatives from FoFJK, PRISM(SPDF).
 Compute integral first derivatives, UseDBF=F ICtDFT=           0.
 Calling FoFJK, ICntrl=      2127 FMM=F ISym2X=1 I1Cent= 0 IOpClX= 0 NMat=1 NMatS=1 NMatT=0.
 FoFJK:  IHMeth= 1 ICntrl=    2127 DoSepK=F KAlg= 0 I1Cent=           0 FoldK=F
 IRaf=         0 NMat=       1 IRICut=       1 DoRegI=T DoRafI=F ISym2E= 1 IDoP0=0 IntGTp=1.
 FoFCou: FMM=F IPFlag=           0 FMFlag=      100000 FMFlg1=         800
         NFxFlg=           0 DoJE=F BraDBF=F KetDBF=F FulRan=T
         wScrn=  0.000000 ICntrl=      2127 IOpCl=  0 I1Cent=           0 NGrid=           0
         NMat0=    1 NMatS0=      1 NMatT0=    0 NMatD0=    1 NMtDS0=    0 NMtDT0=    0
 Petite list used in FoFCou.
 Leave Link  703 at Sat Aug  2 15:34:44 2025, MaxMem= 12348030976 cpu:               3.0 elap:               0.1
 (Enter /home/hhratchian/gaussian/gdv-20250101-j30+/gdv/l716.exe)
 Dipole        =-2.46519033D-32 0.00000000D+00 0.00000000D+00
 ***** Axes restored to original set *****
 -------------------------------------------------------------------
 Center     Atomic                   Forces (Hartrees/Bohr)
 Number     Number              X              Y              Z
 -------------------------------------------------------------------
      1        1           0.000000000    0.000000000   -0.010550212
      2        1          -0.000000000   -0.000000000    0.010550212
 -------------------------------------------------------------------
 Cartesian Forces:  Max     0.010550212 RMS     0.006091168
 Leave Link  716 at Sat Aug  2 15:34:44 2025, MaxMem= 12348030976 cpu:               0.1 elap:               0.0
 (Enter /home/hhratchian/gaussian/gdv-20250101-j30+/gdv/l103.exe)

 GradGradGradGradGradGradGradGradGradGradGradGradGradGradGradGradGradGrad
 Berny optimization.
 Using GEDIIS/GDIIS optimizer.
 Red2BG is reusing G-inverse.
 Internal  Forces:  Max     0.010550212 RMS     0.010550212
 Search for a local minimum.
 Step number   2 out of a maximum of   20
 All quantities printed in internal units (Hartrees-Bohrs-Radians)
 RMS Force = .10550D-01 SwitMx=.10000D-02 MixMth= 1
 Mixed Optimization -- RFO/linear search
 Update second derivatives using D2CorX and points    1    2
 DE= -6.53D-04 DEPred=-9.79D-04 R= 6.67D-01
 TightC=F SS=  1.41D+00  RLast= 7.04D-02 DXNew= 5.0454D-01 2.1111D-01
 Trust test= 6.67D-01 RLast= 7.04D-02 DXMaxT set to 3.00D-01
 The second derivative matrix:
                          R1
           R1           0.54327
 ITU=  1  0
 Use linear search instead of GDIIS.
     Eigenvalues ---    0.54327
 RFO step:  Lambda= 0.00000000D+00 EMin= 5.43266236D-01
 Quartic linear search produced a step of -0.25445.
 GrdOpt: GIC=T ITstSp=  0 NP=   2 DidLin=T DidDIS=F IDoGRo=0 IDoRot=0
         ISwap=1 XLin=-0.254 DXMaxT= 0.300
 Iteration  1 RMS(Cart)=  0.00516894 RMS(Int)=  0.00000000
 Iteration  2 RMS(Cart)=  0.00000000 RMS(Int)=  0.00000000
 ClnCor:  largest displacement from symmetrization is 1.39D-17 for atom     1.
 Variable       Old X    -DE/DX   Delta X   Delta X   Delta X     New X
                                 (Linear)    (Quad)   (Total)
    R1        1.32803   0.01055   0.01791  -0.00000   0.01791   1.34593
         Item               Value     Threshold  Converged?
 Maximum Force            0.010550     0.000450     NO 
 RMS     Force            0.010550     0.000300     NO 
 Maximum Displacement     0.008953     0.001800     NO 
 RMS     Displacement     0.012661     0.001200     NO 
 Predicted change in Energy=-1.018196D-04
 Lowest energy point so far.  Saving SCF results.
 GradGradGradGradGradGradGradGradGradGradGradGradGradGradGradGradGradGrad

 Leave Link  103 at Sat Aug  2 15:34:44 2025, MaxMem= 12348030976 cpu:               1.2 elap:               0.0
 (Enter /home/hhratchian/gaussian/gdv-20250101-j30+/gdv/l202.exe)
                          Input orientation:                          
 ---------------------------------------------------------------------
 Center     Atomic      Atomic             Coordinates (Angstroms)
 Number     Number       Type             X           Y           Z
 ---------------------------------------------------------------------
      1          1           0        0.000000    0.000000    0.013882
      2          1           0        0.000000    0.000000    0.726118
 ---------------------------------------------------------------------
 Stoichiometry    H2
 Framework group  D*H[C*(H.H)]
 Deg. of freedom     1
 Full point group                 D*H     NOp   8
 RotChk:  IX=0 Diff= 0.00D+00
 Largest Abelian subgroup         D2H     NOp   8
 Largest concise Abelian subgroup C2      NOp   2
                         Standard orientation:                         
 ---------------------------------------------------------------------
 Center     Atomic      Atomic             Coordinates (Angstroms)
 Number     Number       Type             X           Y           Z
 ---------------------------------------------------------------------
      1          1           0        0.000000    0.000000    0.356118
      2          1           0        0.000000    0.000000   -0.356118
 ---------------------------------------------------------------------
 Rotational constants (GHZ):           0.0000000        1977.0290474        1977.0290474
 Leave Link  202 at Sat Aug  2 15:34:44 2025, MaxMem= 12348030976 cpu:               1.5 elap:               0.0
 (Enter /home/hhratchian/gaussian/gdv-20250101-j30+/gdv/local/l301.exe)
 Basis read from rwf:  (5D, 7F)
 No pseudopotential information found on rwf file.
 There are     1 symmetry adapted cartesian basis functions of AG  symmetry.
 There are     0 symmetry adapted cartesian basis functions of B1G symmetry.
 There are     0 symmetry adapted cartesian basis functions of B2G symmetry.
 There are     0 symmetry adapted cartesian basis functions of B3G symmetry.
 There are     0 symmetry adapted cartesian basis functions of AU  symmetry.
 There are     1 symmetry adapted cartesian basis functions of B1U symmetry.
 There are     0 symmetry adapted cartesian basis functions of B2U symmetry.
 There are     0 symmetry adapted cartesian basis functions of B3U symmetry.
 There are     1 symmetry adapted basis functions of AG  symmetry.
 There are     0 symmetry adapted basis functions of B1G symmetry.
 There are     0 symmetry adapted basis functions of B2G symmetry.
 There are     0 symmetry adapted basis functions of B3G symmetry.
 There are     0 symmetry adapted basis functions of AU  symmetry.
 There are     1 symmetry adapted basis functions of B1U symmetry.
 There are     0 symmetry adapted basis functions of B2U symmetry.
 There are     0 symmetry adapted basis functions of B3U symmetry.
     2 basis functions,     6 primitive gaussians,     2 cartesian basis functions
     1 alpha electrons        1 beta electrons
       nuclear repulsion energy         0.7429791595 Hartrees.
 IExCor=         0 DFT=F Ex=HF Corr=None N6=None ScaHFX=  1.000000
 ScaDFX=  1.000000  1.000000  1.000000  1.000000  1.000000  0.000000
 ScaDFX=  0.000000  0.000000  0.000000  0.000000  0.000000  0.000000
 Grid=SuperFine IRanWt=     -1 IRanGd=            0 ICorTp=0 IEDCtl=  2004
 NAtoms=    2 NActive=    2 NUniq=    1 SFac= 4.00D+00 NAtFMM=   60 NAOKFM=F Big=F
 Integral buffers will be    131072 words long.
 Raffenetti 1 integral format.
 Two-electron integral symmetry is turned on.
 No density basis found on file    724.
 Leave Link  301 at Sat Aug  2 15:34:44 2025, MaxMem= 12348030976 cpu:               0.2 elap:               0.0
 (Enter /home/hhratchian/gaussian/gdv-20250101-j30+/gdv/l302.exe)
 NPDir=0 NMtPBC=     1 NCelOv=     1 NCel=       1 NClECP=     1 NCelD=      1
         NCelK=      1 NCelE2=     1 NClLst=     1 CellRange=     0.0.
 One-electron integrals computed using PRISM.
 One-electron integral symmetry used in STVInt
 NBasis=     2 RedAO= T EigKep=  3.22D-01  NBF=     1     0     0     0     0     1     0     0
 NBsUse=     2 1.00D-06 EigRej= -1.00D+00 NBFU=     1     0     0     0     0     1     0     0
 Leave Link  302 at Sat Aug  2 15:34:44 2025, MaxMem= 12348030976 cpu:               2.2 elap:               0.1
 (Enter /home/hhratchian/gaussian/gdv-20250101-j30+/gdv/l303.exe)
 DipDrv:  MaxL=1.
 Leave Link  303 at Sat Aug  2 15:34:44 2025, MaxMem= 12348030976 cpu:               0.5 elap:               0.0
 (Enter /home/hhratchian/gaussian/gdv-20250101-j30+/gdv/l401.exe)
 Initial guess from the checkpoint file:  "H2_HF_STO3G.chk"
 B after Tr=     0.000000    0.000000    0.000000
         Rot=    1.000000    0.000000    0.000000    0.000000 Ang=   0.00 deg.
 AO Guess basis will be translated and rotated to current coordinates.
 JPrj=2 DoOrth=T DoCkMO=T.
 Initial guess orbital symmetries:
       Occupied  (SGG)
       Virtual   (SGU)
 The electronic state of the initial guess is 1-SGG.
 Leave Link  401 at Sat Aug  2 15:34:45 2025, MaxMem= 12348030976 cpu:               0.4 elap:               0.1
 (Enter /home/hhratchian/gaussian/gdv-20250101-j30+/gdv/local/l502.exe)
 Keep R1 ints in memory in symmetry-blocked form, NReq=11202978.
 FoFCou: FMM=F IPFlag=           0 FMFlag=           0 FMFlg1=           0
         NFxFlg=           0 DoJE=F BraDBF=F KetDBF=F FulRan=T
         wScrn=  0.000000 ICntrl=       600 IOpCl=  0 I1Cent=           0 NGrid=           0
         NMat0=    1 NMatS0=      3 NMatT0=    0 NMatD0=    1 NMtDS0=    0 NMtDT0=    0
 Petite list used in FoFCou.
 Closed shell SCF:
 Using DIIS extrapolation, IDIIS=    10.
 NGot= 12348030976 LenX= 12348028340 LenY= 12348027458
 Requested convergence on RMS density matrix=1.00D-08 within 128 cycles.
 Requested convergence on MAX density matrix=1.00D-06.
 Requested convergence on             energy=1.00D-06.
 Level shift goal  0.100 maximum shift  0.100.
 No special actions if energy rises.
 Dynamic level shift is on during FON iterations.
 
  Hrant - CycOpn.
 

 Cycle   1  Pass 1  IDiag  1:
 E= -1.11750588510782    
 DIIS: error= 7.55D-17 at cycle   1 NSaved=   1.
 NSaved= 1 IEnMin= 1 EnMin= -1.11750588510782     IErMin= 1 ErrMin= 7.55D-17
 ErrMax= 7.55D-17  0.00D+00 EMaxC= 1.00D+00 BMatC= 1.14D-32 BMatP= 1.14D-32
 Rises=F IDIUse=1 WtCom= 1.00D+00 WtEn= 0.00D+00
 Coeff-Com:  0.100D+01
 Coeff:      0.100D+01
 Gap=     1.291 Goal=     0.100 Shift=    0.000
 Skip diagonalization as Alpha Fock matrix is already diagonal.
 RMSDP=5.55D-17 MaxDP=5.55D-17              OVMax= 0.00D+00

 SCF Done:  E(RHF) =  -1.11750588511     A.U. after    1 cycles
            NFock=  1  Conv=0.56D-16     -V/T= 1.9248
 KE=           1.208410 PE=          -3.748950 EE=           0.680055
 Leave Link  502 at Sat Aug  2 15:34:45 2025, MaxMem= 12348030976 cpu:               1.9 elap:               0.1
 (Enter /home/hhratchian/gaussian/gdv-20250101-j30+/gdv/l701.exe)
 ... and contract with generalized density number  0.
 Compute integral first derivatives.
 Leave Link  701 at Sat Aug  2 15:34:45 2025, MaxMem= 12348030976 cpu:               3.1 elap:               0.1
 (Enter /home/hhratchian/gaussian/gdv-20250101-j30+/gdv/l702.exe)
 L702 exits ... SP integral derivatives will be done elsewhere.
 Leave Link  702 at Sat Aug  2 15:34:45 2025, MaxMem= 12348030976 cpu:               0.1 elap:               0.0
 (Enter /home/hhratchian/gaussian/gdv-20250101-j30+/gdv/l703.exe)
 Integral derivatives from FoFJK, PRISM(SPDF).
 Compute integral first derivatives, UseDBF=F ICtDFT=           0.
 Calling FoFJK, ICntrl=      2127 FMM=F ISym2X=1 I1Cent= 0 IOpClX= 0 NMat=1 NMatS=1 NMatT=0.
 FoFJK:  IHMeth= 1 ICntrl=    2127 DoSepK=F KAlg= 0 I1Cent=           0 FoldK=F
 IRaf=         0 NMat=       1 IRICut=       1 DoRegI=T DoRafI=F ISym2E= 1 IDoP0=0 IntGTp=1.
 FoFCou: FMM=F IPFlag=           0 FMFlag=      100000 FMFlg1=         800
         NFxFlg=           0 DoJE=F BraDBF=F KetDBF=F FulRan=T
         wScrn=  0.000000 ICntrl=      2127 IOpCl=  0 I1Cent=           0 NGrid=           0
         NMat0=    1 NMatS0=      1 NMatT0=    0 NMatD0=    1 NMtDS0=    0 NMtDT0=    0
 Petite list used in FoFCou.
 Leave Link  703 at Sat Aug  2 15:34:45 2025, MaxMem= 12348030976 cpu:               2.1 elap:               0.1
 (Enter /home/hhratchian/gaussian/gdv-20250101-j30+/gdv/l716.exe)
 Dipole        =-2.46519033D-32 0.00000000D+00 1.11022302D-16
 ***** Axes restored to original set *****
 -------------------------------------------------------------------
 Center     Atomic                   Forces (Hartrees/Bohr)
 Number     Number              X              Y              Z
 -------------------------------------------------------------------
      1        1           0.000000000    0.000000000    0.000007682
      2        1          -0.000000000   -0.000000000   -0.000007682
 -------------------------------------------------------------------
 Cartesian Forces:  Max     0.000007682 RMS     0.000004435
 Leave Link  716 at Sat Aug  2 15:34:45 2025, MaxMem= 12348030976 cpu:               0.1 elap:               0.0
 (Enter /home/hhratchian/gaussian/gdv-20250101-j30+/gdv/l103.exe)

 GradGradGradGradGradGradGradGradGradGradGradGradGradGradGradGradGradGrad
 Berny optimization.
 Using GEDIIS/GDIIS optimizer.
 Red2BG is reusing G-inverse.
 Internal  Forces:  Max     0.000007682 RMS     0.000007682
 Search for a local minimum.
 Step number   3 out of a maximum of   20
 All quantities printed in internal units (Hartrees-Bohrs-Radians)
 RMS Force = .76820D-05 SwitMx=.10000D-02 MixMth= 2
 Mixed Optimization -- En-DIIS/RFO-DIIS
 Update second derivatives using D2CorX and points    2    3
 DE= -9.35D-05 DEPred=-1.02D-04 R= 9.18D-01
 TightC=F SS=  1.41D+00  RLast= 1.79D-02 DXNew= 5.0454D-01 5.3717D-02
 Trust test= 9.18D-01 RLast= 1.79D-02 DXMaxT set to 3.00D-01
 The second derivative matrix:
                          R1
           R1           0.58964
 ITU=  1  1
 Use linear search instead of GDIIS.
     Eigenvalues ---    0.58964
 RFO step:  Lambda= 0.00000000D+00 EMin= 5.89637187D-01
 Quartic linear search produced a step of -0.00075.
 GrdOpt: GIC=T ITstSp=  0 NP=   2 DidLin=T DidDIS=F IDoGRo=0 IDoRot=0
         ISwap=1 XLin=-0.001 DXMaxT= 0.300
 Iteration  1 RMS(Cart)=  0.00000387 RMS(Int)=  0.00000000
 Iteration  2 RMS(Cart)=  0.00000000 RMS(Int)=  0.00000000
 ClnCor:  largest displacement from symmetrization is 1.39D-17 for atom     1.
 Variable       Old X    -DE/DX   Delta X   Delta X   Delta X     New X
                                 (Linear)    (Quad)   (Total)
    R1        1.34593  -0.00001  -0.00001  -0.00000  -0.00001   1.34592
         Item               Value     Threshold  Converged?
 Maximum Force            0.000008     0.000450     YES
 RMS     Force            0.000008     0.000300     YES
 Maximum Displacement     0.000007     0.001800     YES
 RMS     Displacement     0.000009     0.001200     YES
 Predicted change in Energy=-4.999885D-11
 Optimization completed.
    -- Stationary point found.
                           ----------------------------
                           !   Optimized Parameters   !
                           ! (Angstroms and Degrees)  !
 --------------------------                            --------------------------
 ! Name  Definition              Value          Derivative Info.                !
 --------------------------------------------------------------------------------
 ! R1    R(1,2)                  0.7122         -DE/DX =    0.0                 !
 --------------------------------------------------------------------------------
 Lowest energy point so far.  Saving SCF results.
 Largest change from initial coordinates is atom    1       0.014 Angstoms.
 GradGradGradGradGradGradGradGradGradGradGradGradGradGradGradGradGradGrad

 Leave Link  103 at Sat Aug  2 15:34:45 2025, MaxMem= 12348030976 cpu:               1.4 elap:               0.1
 (Enter /home/hhratchian/gaussian/gdv-20250101-j30+/gdv/l202.exe)
                          Input orientation:                          
 ---------------------------------------------------------------------
 Center     Atomic      Atomic             Coordinates (Angstroms)
 Number     Number       Type             X           Y           Z
 ---------------------------------------------------------------------
      1          1           0        0.000000    0.000000    0.013882
      2          1           0        0.000000    0.000000    0.726118
 ---------------------------------------------------------------------
 Stoichiometry    H2
 Framework group  D*H[C*(H.H)]
 Deg. of freedom     1
 Full point group                 D*H     NOp   8
 RotChk:  IX=0 Diff= 0.00D+00
 Largest Abelian subgroup         D2H     NOp   8
 Largest concise Abelian subgroup C2      NOp   2
                         Standard orientation:                         
 ---------------------------------------------------------------------
 Center     Atomic      Atomic             Coordinates (Angstroms)
 Number     Number       Type             X           Y           Z
 ---------------------------------------------------------------------
      1          1           0        0.000000    0.000000    0.356118
      2          1           0        0.000000    0.000000   -0.356118
 ---------------------------------------------------------------------
 Rotational constants (GHZ):           0.0000000        1977.0290474        1977.0290474
 Leave Link  202 at Sat Aug  2 15:34:45 2025, MaxMem= 12348030976 cpu:               1.2 elap:               0.0
 (Enter /home/hhratchian/gaussian/gdv-20250101-j30+/gdv/l601.exe)
 Copying SCF densities to generalized density rwf, IOpCl= 0 IROHF=0.
 
 **********************************************************************
 
               Population analysis using the SCF Density.
 
 **********************************************************************
 
 Orbital symmetries:
       Occupied  (SGG)
       Virtual   (SGU)
 The electronic state is 1-SGG.
 Alpha  occ. eigenvalues --       -0.59022
 Alpha virt. eigenvalues --        0.70064
          Condensed to atoms (all electrons):
               1          2
     1  H    0.595925   0.404075
     2  H    0.404075   0.595925
 Mulliken charges:
               1
     1  H   -0.000000
     2  H   -0.000000
 Sum of Mulliken charges=  -0.00000
 Mulliken charges with hydrogens summed into heavy atoms:
               1
 Electronic spatial extent (au):  <R**2>=              4.7224
 Charge=             -0.0000 electrons
 Dipole moment (field-independent basis, Debye):
    X=             -0.0000    Y=              0.0000    Z=              0.0000  Tot=              0.0000
 Quadrupole moment (field-independent basis, Debye-Ang):
   XX=             -1.8430   YY=             -1.8430   ZZ=             -1.4474
   XY=              0.0000   XZ=             -0.0000   YZ=              0.0000
 Traceless Quadrupole moment (field-independent basis, Debye-Ang):
   XX=             -0.1319   YY=             -0.1319   ZZ=              0.2637
   XY=              0.0000   XZ=             -0.0000   YZ=              0.0000
 Octapole moment (field-independent basis, Debye-Ang**2):
  XXX=             -0.0000  YYY=              0.0000  ZZZ=             -0.0000  XYY=             -0.0000
  XXY=              0.0000  XXZ=              0.0000  XZZ=             -0.0000  YZZ=              0.0000
  YYZ=              0.0000  XYZ=              0.0000
 Hexadecapole moment (field-independent basis, Debye-Ang**3):
 XXXX=             -1.5239 YYYY=             -1.5239 ZZZZ=             -2.3362 XXXY=              0.0000
 XXXZ=              0.0000 YYYX=              0.0000 YYYZ=              0.0000 ZZZX=              0.0000
 ZZZY=              0.0000 XXYY=             -0.5080 XXZZ=             -0.6529 YYZZ=             -0.6529
 XXYZ=              0.0000 YYXZ=              0.0000 ZZXY=              0.0000
 N-N=           0.742979 E-N=          -3.748950  KE=           1.208410
 Symmetry AG   KE=           1.208410
 Symmetry B1G  KE=           0.000000
 Symmetry B2G  KE=           0.000000
 Symmetry B3G  KE=           0.000000
 Symmetry AU   KE=           0.000000
 Symmetry B1U  KE=           0.000000
 Symmetry B2U  KE=           0.000000
 Symmetry B3U  KE=           0.000000
 No NMR shielding tensors so no spin-rotation constants.
 Leave Link  601 at Sat Aug  2 15:34:45 2025, MaxMem= 12348030976 cpu:               3.1 elap:               0.1
 (Enter /home/hhratchian/gaussian/gdv-20250101-j30+/gdv/local/l9999.exe)
 Unable to Open any file for archive entry.
 1\1\GINC-HMNODE006\FOpt\RHF\Gen\H2\AABOUTAKA\02-Aug-2025\0\\#P HF chkb
 asis Geom=AllCheck Guess=Read Opt Freq SCF=(fermi, novaracc) int=super
 finegrid\\Initial Stability Check for H2\\0,1\H,0.,0.,0.0138815247\H,0
 .,0.,0.7261184753\\Version=ES64L-GDVRevJ.30+\State=1-SGG\HF=-1.1175059
 \RMSD=5.551e-17\RMSF=4.435e-06\Dipole=0.,0.,0.\Quadrupole=-0.0980364,-
 0.0980364,0.1960728,0.,0.,0.\PG=D*H [C*(H1.H1)]\\@
 The archive entry for this job was punched.


 SCIENCE IS LONG AND LIFE IS SHORT.

                     DON MOSER IN THE FEBRUARY 1979 SMITHSONIAN
 Leave Link 9999 at Sat Aug  2 15:34:45 2025, MaxMem= 12348030976 cpu:               1.4 elap:               0.1
 Job cpu time:       0 days  0 hours  1 minutes  4.9 seconds.
 Elapsed time:       0 days  0 hours  0 minutes  6.0 seconds.
 File lengths (MBytes):  RWF=     38 Int=      0 D2E=      0 Chk=     17 Scr=      2
 Normal termination of Gaussian DV at Sat Aug  2 15:34:45 2025.
 (Enter /home/hhratchian/gaussian/gdv-20250101-j30+/gdv/local/l1.exe)
 Link1:  Proceeding to internal job step number  2.
 ---------------------------------------------------------------
 #P Geom=AllCheck Guess=TCheck SCRF=Check GenChk RHF/ChkBas Freq
 ---------------------------------------------------------------
 1/10=4,29=7,30=1,38=1,40=1/1,3;
 2/12=2/2;
 3/5=7,6=2,11=1,14=-4,25=1,30=1,67=1,70=2,71=2,75=-7,82=7,116=1,140=1,187=7/1,2,3;
 4/5=101/1;
 5/5=2,22=13,38=6,98=1/2;
 8/6=4,10=90,11=11/1;
 10/13=10,15=4/2;
 11/6=3,8=1,9=11,15=111,16=1/1,2,10;
 10/6=1/2;
 6/7=2,8=2,9=2,10=2,28=1/1;
 7/8=1,10=1,25=1/1,2,3,16;
 1/10=4,30=1/3;
 99//99;
 Leave Link    1 at Sat Aug  2 15:34:45 2025, MaxMem= 12348030976 cpu:               0.1 elap:               0.0
 (Enter /home/hhratchian/gaussian/gdv-20250101-j30+/gdv/local/l101.exe)
 
  Hrant - IAPOps =                         0
  Hrant - IAPOp1 =                         0
  Hrant - IAPOp2 =                         0
  Hrant - DoAP   =   F
 
 Structure from the checkpoint file:  "H2_HF_STO3G.chk"
 ------------------------------
 Initial Stability Check for H2
 ------------------------------
 Charge =     0 Multiplicity =     1
 Redundant internal coordinates found in file.  (GICs).
 H,0,0.,0.,0.0138815247
 H,0,0.,0.,0.7261184753
 
 Recover connectivity data from disk.
 Reading GIC definitions from chk.
 Skipping GIC derivative info from chk, if any.
 No input coordinate modifications requested.
 Forming B-matrix definitions.
 Forming B-matrix derivative definitions.
 ITRead=  0  0
 MicOpt= -1 -1
 NAtoms=      2 NQM=        2 NQMF=       0 NMMI=      0 NMMIF=      0
                NMic=       0 NMicF=      0.
                    Isotopes and Nuclear Properties:
 (Nuclear quadrupole moments (NQMom) in fm**2, nuclear magnetic moments (NMagM)
  in nuclear magnetons)

  Atom         1           2
 IAtWgt=           1           1
 AtmWgt=   1.0078250   1.0078250
 NucSpn=           1           1
 AtZEff=    1.000000    1.000000
 NQMom=    0.0000000   0.0000000
 NMagM=    2.7928460   2.7928460
 AtZNuc=   1.0000000   1.0000000
[...]
 C. Adamo, N. Rega, M. Caricato, H. P. Hratchian, J. V. Ortiz, 
 F. Pawlowski, A. F. Izmaylov, H. Hu, C. Liao, J. L. Sonnenberg, 
 D. Williams-Young, F. Ding, R. Gomperts, F. Egidi, J. Goings, 
 B. Peng, A. Petrone, T. Henderson, D. Ranasinghe, V. G. Zakrzewski, 
 J. Gao, G. Zheng, W. Liang, M. Hada, M. Ehara, K. Toyota, R. Fukuda, 
 J. Hasegawa, M. Ishida, T. Nakajima, Y. Honda, O. Kitao, H. Nakai, 
 T. Vreven, K. Throssell, J. A. Montgomery, Jr., J. E. Peralta, 
 F. Ogliaro, M. J. Bearpark, J. J. Heyd, E. N. Brothers, K. N. Kudin, 
 V. N. Staroverov, T. A. Keith, R. Kobayashi, J. Normand, 
 K. Raghavachari, A. P. Rendell, J. C. Burant, S. S. Iyengar, 
 M. Cossi, J. M. Millam, M. Klene, R. Cammi, R. L. Martin, O. Farkas, 
 J. B. Foresman, and D. J. Fox, Gaussian, Inc., Wallingford CT, 2024.
 
 *******************************************
 Gaussian DV:  ES64L-GDVRevJ.30+ 18-Dec-2024
                  2-Aug-2025 
 *******************************************
 %OldChk=H2_HF_STO3G.chk
 %Chk=H2_HF_STO3G-stab.chk
 Copying data from "H2_HF_STO3G.chk" to current chk file "H2_HF_STO3G-stab.chk"
 IOpt=  2 FromEx=T IUOpen= 4 IOptOp= 5 NList=   0 IFRang= 0 IUIn= 4 IUOut= 2.
 ----------------------------------------------------------------------
 #P HF chkbasis Geom=AllCheck Guess=Read Stable=Opt SCF=(fermi,novaracc
 )
 ----------------------------------------------------------------------
 1/29=7,38=1,172=1/1;
 2/12=2/2;
 3/5=7,6=2,11=2,14=-4,25=1,30=1,67=1,116=-2/1,2,3;
 4/5=1/1;
 5/5=2,22=13,38=6/2;
 6/7=2,8=2,9=2,10=2,28=1/1;
 8/6=1,10=90,11=11/1;
 9/8=-3,42=1,46=1/14;
 5/5=2,8=3,17=40,22=13,38=6/8(-2);
 6/7=2,8=2,9=2,10=2,28=1/1;
 99/5=1,9=1/99;
 Leave Link    1 at Sat Aug  2 15:34:48 2025, MaxMem= 12348030976 cpu:               1.4 elap:               0.1
 (Enter /home/hhratchian/gaussian/gdv-20250101-j30+/gdv/local/l101.exe)
 
  Hrant - IAPOps =                         0
  Hrant - IAPOp1 =                         0
  Hrant - IAPOp2 =                         0
  Hrant - DoAP   =   F
 
 Structure from the checkpoint file:  "H2_HF_STO3G-stab.chk"
 ------------------------------
 Initial Stability Check for H2
 ------------------------------
 Charge =     0 Multiplicity =     1
 Redundant internal coordinates found in file.  (GICs).
 H,0,0.,0.,0.0138815247
 H,0,0.,0.,0.7261184753
 
 Recover connectivity data from disk.
 Reading GIC definitions from chk.
 Reading GIC derivative info from chk.
 ITRead=  0  0
 MicOpt= -1 -1
                           ----------------------------
                           !    Current Parameters    !
                           ! (Angstroms and Degrees)  !
 --------------------------                            --------------------------
 ! Name  Definition              Value                                          !
 --------------------------------------------------------------------------------
 ! R1    R(1,2)                  0.7122                                         !
 --------------------------------------------------------------------------------
 NAtoms=      2 NQM=        2 NQMF=       0 NMMI=      0 NMMIF=      0
                NMic=       0 NMicF=      0.
                    Isotopes and Nuclear Properties:
 (Nuclear quadrupole moments (NQMom) in fm**2, nuclear magnetic moments (NMagM)
  in nuclear magnetons)

  Atom         1           2
 IAtWgt=           1           1
 AtmWgt=   1.0078250   1.0078250
 NucSpn=           1           1
 AtZEff=    1.000000    1.000000
 NQMom=    0.0000000   0.0000000
 NMagM=    2.7928460   2.7928460
 AtZNuc=   1.0000000   1.0000000
 Leave Link  101 at Sat Aug  2 15:34:48 2025, MaxMem= 12348030976 cpu:               0.4 elap:               0.2
 (Enter /home/hhratchian/gaussian/gdv-20250101-j30+/gdv/l202.exe)
                          Input orientation:                          
 ---------------------------------------------------------------------
 Center     Atomic      Atomic             Coordinates (Angstroms)
 Number     Number       Type             X           Y           Z
 ---------------------------------------------------------------------
      1          1           0        0.000000    0.000000    0.013882
      2          1           0        0.000000    0.000000    0.726118
 ---------------------------------------------------------------------
 Stoichiometry    H2
 Framework group  D*H[C*(H.H)]
 Deg. of freedom     1
 Full point group                 D*H     NOp   8
 RotChk:  IX=0 Diff= 0.00D+00
 Largest Abelian subgroup         D2H     NOp   8
 Largest concise Abelian subgroup C2      NOp   2
                         Standard orientation:                         
 ---------------------------------------------------------------------
 Center     Atomic      Atomic             Coordinates (Angstroms)
 Number     Number       Type             X           Y           Z
 ---------------------------------------------------------------------
      1          1           0        0.000000    0.000000    0.356118
      2          1           0        0.000000    0.000000   -0.356118
 ---------------------------------------------------------------------
 Rotational constants (GHZ):           0.0000000        1977.0290474        1977.0290474
 Leave Link  202 at Sat Aug  2 15:34:49 2025, MaxMem= 12348030976 cpu:               2.6 elap:               0.1
 (Enter /home/hhratchian/gaussian/gdv-20250101-j30+/gdv/local/l301.exe)
 Basis read from chk: "H2_HF_STO3G-stab.chk" (5D, 7F)
 No pseudopotential information found on chk file.
 There are     1 symmetry adapted cartesian basis functions of AG  symmetry.
 There are     0 symmetry adapted cartesian basis functions of B1G symmetry.
 There are     0 symmetry adapted cartesian basis functions of B2G symmetry.
 There are     0 symmetry adapted cartesian basis functions of B3G symmetry.
 There are     0 symmetry adapted cartesian basis functions of AU  symmetry.
 There are     1 symmetry adapted cartesian basis functions of B1U symmetry.
 There are     0 symmetry adapted cartesian basis functions of B2U symmetry.
 There are     0 symmetry adapted cartesian basis functions of B3U symmetry.
 There are     1 symmetry adapted basis functions of AG  symmetry.
 There are     0 symmetry adapted basis functions of B1G symmetry.
 There are     0 symmetry adapted basis functions of B2G symmetry.
 There are     0 symmetry adapted basis functions of B3G symmetry.
 There are     0 symmetry adapted basis functions of AU  symmetry.
 There are     1 symmetry adapted basis functions of B1U symmetry.
 There are     0 symmetry adapted basis functions of B2U symmetry.
 There are     0 symmetry adapted basis functions of B3U symmetry.
     2 basis functions,     6 primitive gaussians,     2 cartesian basis functions
     1 alpha electrons        1 beta electrons
       nuclear repulsion energy         0.7429791595 Hartrees.
 IExCor=         0 DFT=F Ex=HF Corr=None N6=None ScaHFX=  1.000000
 ScaDFX=  1.000000  1.000000  1.000000  1.000000  1.000000  0.000000
 ScaDFX=  0.000000  0.000000  0.000000  0.000000  0.000000  0.000000
 Grid=UltraFine IRanWt=     -1 IRanGd=            0 ICorTp=0 IEDCtl=  2004
 NAtoms=    2 NActive=    2 NUniq=    1 SFac= 4.00D+00 NAtFMM=   60 NAOKFM=F Big=F
 Integral buffers will be    131072 words long.
 Raffenetti 2 integral format.
 Two-electron integral symmetry is turned on.
 No density basis found on file 200724.
 Leave Link  301 at Sat Aug  2 15:34:49 2025, MaxMem= 12348030976 cpu:               0.2 elap:               0.0
 (Enter /home/hhratchian/gaussian/gdv-20250101-j30+/gdv/l302.exe)
 NPDir=0 NMtPBC=     1 NCelOv=     1 NCel=       1 NClECP=     1 NCelD=      1
         NCelK=      1 NCelE2=     1 NClLst=     1 CellRange=     0.0.
 One-electron integrals computed using PRISM.
 One-electron integral symmetry used in STVInt
 NBasis=     2 RedAO= T EigKep=  3.22D-01  NBF=     1     0     0     0     0     1     0     0
 NBsUse=     2 1.00D-06 EigRej= -1.00D+00 NBFU=     1     0     0     0     0     1     0     0
 Leave Link  302 at Sat Aug  2 15:34:49 2025, MaxMem= 12348030976 cpu:               1.1 elap:               0.1
 (Enter /home/hhratchian/gaussian/gdv-20250101-j30+/gdv/l303.exe)
 DipDrv:  MaxL=1.
 Leave Link  303 at Sat Aug  2 15:34:49 2025, MaxMem= 12348030976 cpu:               1.3 elap:               0.1
 (Enter /home/hhratchian/gaussian/gdv-20250101-j30+/gdv/l401.exe)
 Initial guess from the checkpoint file:  "H2_HF_STO3G-stab.chk"
 B after Tr=     0.000000    0.000000    0.000000
         Rot=    1.000000    0.000000    0.000000    0.000000 Ang=   0.00 deg.
 AO Guess basis will be translated and rotated to current coordinates.
 JPrj=2 DoOrth=T DoCkMO=T.
 Initial guess orbital symmetries:
       Occupied  (SGG)
       Virtual   (SGU)
 The electronic state of the initial guess is 1-SGG.
 Leave Link  401 at Sat Aug  2 15:34:49 2025, MaxMem= 12348030976 cpu:               1.4 elap:               0.1
 (Enter /home/hhratchian/gaussian/gdv-20250101-j30+/gdv/local/l502.exe)
 Keep R1 ints in memory in symmetry-blocked form, NReq=11202978.
 FoFCou: FMM=F IPFlag=           0 FMFlag=           0 FMFlg1=           0
         NFxFlg=           0 DoJE=F BraDBF=F KetDBF=F FulRan=T
         wScrn=  0.000000 ICntrl=       600 IOpCl=  0 I1Cent=           0 NGrid=           0
         NMat0=    1 NMatS0=      3 NMatT0=    0 NMatD0=    1 NMtDS0=    0 NMtDT0=    0
 Petite list used in FoFCou.
 Closed shell SCF:
 Using DIIS extrapolation, IDIIS=    10.
 NGot= 12348030976 LenX= 12348028340 LenY= 12348027458
 Requested convergence on RMS density matrix=1.00D-08 within 128 cycles.
 Requested convergence on MAX density matrix=1.00D-06.
 Requested convergence on             energy=1.00D-06.
 Level shift goal  0.100 maximum shift  0.100.
 No special actions if energy rises.
 Dynamic level shift is on during FON iterations.
 
  Hrant - CycOpn.
 

 Cycle   1  Pass 1  IDiag  1:
 E= -1.11750588510782    
 DIIS: error= 7.55D-17 at cycle   1 NSaved=   1.
 NSaved= 1 IEnMin= 1 EnMin= -1.11750588510782     IErMin= 1 ErrMin= 7.55D-17
 ErrMax= 7.55D-17  0.00D+00 EMaxC= 1.00D+00 BMatC= 1.14D-32 BMatP= 1.14D-32
 Rises=F IDIUse=1 WtCom= 1.00D+00 WtEn= 0.00D+00
 Coeff-Com:  0.100D+01
 Coeff:      0.100D+01
 Gap=     1.291 Goal=     0.100 Shift=    0.000
 Skip diagonalization as Alpha Fock matrix is already diagonal.
 RMSDP=5.55D-17 MaxDP=5.55D-17              OVMax= 0.00D+00

 SCF Done:  E(RHF) =  -1.11750588511     A.U. after    1 cycles
            NFock=  1  Conv=0.56D-16     -V/T= 1.9248
 KE=           1.208410 PE=          -3.748950 EE=           0.680055
 Leave Link  502 at Sat Aug  2 15:34:49 2025, MaxMem= 12348030976 cpu:               1.8 elap:               0.1
 (Enter /home/hhratchian/gaussian/gdv-20250101-j30+/gdv/l601.exe)
 Copying SCF densities to generalized density rwf, IOpCl= 0 IROHF=0.
 
 **********************************************************************
 
               Population analysis using the SCF Density.
 
 **********************************************************************
 
 Orbital symmetries:
       Occupied  (SGG)
       Virtual   (SGU)
 The electronic state is 1-SGG.
 Alpha  occ. eigenvalues --       -0.59022
 Alpha virt. eigenvalues --        0.70064
          Condensed to atoms (all electrons):
               1          2
     1  H    0.595925   0.404075
     2  H    0.404075   0.595925
 Mulliken charges:
               1
     1  H   -0.000000
     2  H   -0.000000
 Sum of Mulliken charges=  -0.00000
 Mulliken charges with hydrogens summed into heavy atoms:
               1
 Electronic spatial extent (au):  <R**2>=              4.7224
 Charge=             -0.0000 electrons
 Dipole moment (field-independent basis, Debye):
    X=             -0.0000    Y=              0.0000    Z=              0.0000  Tot=              0.0000
 Quadrupole moment (field-independent basis, Debye-Ang):
   XX=             -1.8430   YY=             -1.8430   ZZ=             -1.4474
   XY=              0.0000   XZ=             -0.0000   YZ=              0.0000
 Traceless Quadrupole moment (field-independent basis, Debye-Ang):
   XX=             -0.1319   YY=             -0.1319   ZZ=              0.2637
   XY=              0.0000   XZ=             -0.0000   YZ=              0.0000
 Octapole moment (field-independent basis, Debye-Ang**2):
  XXX=             -0.0000  YYY=              0.0000  ZZZ=             -0.0000  XYY=             -0.0000
  XXY=              0.0000  XXZ=              0.0000  XZZ=             -0.0000  YZZ=              0.0000
  YYZ=              0.0000  XYZ=              0.0000
 Hexadecapole moment (field-independent basis, Debye-Ang**3):
 XXXX=             -1.5239 YYYY=             -1.5239 ZZZZ=             -2.3362 XXXY=              0.0000
 XXXZ=              0.0000 YYYX=              0.0000 YYYZ=              0.0000 ZZZX=              0.0000
 ZZZY=              0.0000 XXYY=             -0.5080 XXZZ=             -0.6529 YYZZ=             -0.6529
 XXYZ=              0.0000 YYXZ=              0.0000 ZZXY=              0.0000
 N-N=           0.742979 E-N=          -3.748950  KE=           1.208410
 Symmetry AG   KE=           1.208410
 Symmetry B1G  KE=           0.000000
 Symmetry B2G  KE=           0.000000
 Symmetry B3G  KE=           0.000000
 Symmetry AU   KE=           0.000000
 Symmetry B1U  KE=           0.000000
 Symmetry B2U  KE=           0.000000
 Symmetry B3U  KE=           0.000000
 No NMR shielding tensors so no spin-rotation constants.
 Leave Link  601 at Sat Aug  2 15:34:49 2025, MaxMem= 12348030976 cpu:               4.4 elap:               0.1
 (Enter /home/hhratchian/gaussian/gdv-20250101-j30+/gdv/l801.exe)
 Range of M.O.s used for correlation:     1     2
 NBasis=     2 NAE=     1 NBE=     1 NFC=     0 NFV=     0
 NROrb=      2 NOA=     1 NOB=     1 NVA=     1 NVB=     1
 Leave Link  801 at Sat Aug  2 15:34:49 2025, MaxMem= 12348030976 cpu:               0.2 elap:               0.0
 (Enter /home/hhratchian/gaussian/gdv-20250101-j30+/gdv/l914.exe)
 RHF ground state
 Doing stability rather than CIS.
 Keep R1 and R2 ints in memory in symmetry-blocked form, NReq=11203327.
 FoFCou: FMM=F IPFlag=           0 FMFlag=           0 FMFlg1=           0
         NFxFlg=           0 DoJE=F BraDBF=F KetDBF=F FulRan=T
         wScrn=  0.000000 ICntrl=       600 IOpCl=  0 I1Cent=           0 NGrid=           0
         NMat0=    1 NMatS0=      3 NMatT0=    0 NMatD0=    1 NMtDS0=    0 NMtDT0=    0
 Petite list used in FoFCou.
 MDV= 12348030976 DFT=F IDoStb=1 Mixed=F DoRPA=F DoScal=F NonHer=F
 Making orbital integer symmetry assigments:
 Orbital symmetries:
       Occupied  (SGG)
       Virtual   (SGU)
 The electronic state is 1-SGG.
     2 initial guesses have been made.
 Convergence on wavefunction:    0.001000000000000
 Davidson Disk Diagonalization:  ConvIn= 1.00D-03 SkipCon=T Conv= 1.00D-03.
 Max sub-space:     8 initial roots:     4 roots to seek:     1 dimension of matrix:            2
 *** WARNING: Number of orthogonal guesses is            2
 Iteration     1 Dimension     2 NMult     0 NNew      2
 CISAX will form     2 AO SS matrices at one time.
 NMat=     2 NSing=     1 JSym2X= 2.
 New state      1 was old state      2
 Excitation Energies [eV] at current iteration:
 Root      1 :    12.044080328843320
 Root      2 :    31.600435845514731
 Convergence achieved for final wavefunctions.
 1PDM for each excited state written to RWF  633
 Ground to excited state transition densities written to RWF  633

 ***********************************************************************
 Stability analysis using <AA,BB:AA,BB> singles matrix:
 ***********************************************************************

 Eigenvectors of the stability matrix:
 
 Eigenvector   1:      Triplet-SGU  Eigenvalue= 0.4426118  <S**2>=2.000
       1 ->  2         0.70711
 The wavefunction is stable under the perturbations considered.
 Leave Link  914 at Sat Aug  2 15:34:49 2025, MaxMem= 12348030976 cpu:               2.6 elap:               0.1
 (Enter /home/hhratchian/gaussian/gdv-20250101-j30+/gdv/l508.exe)
 The wavefunction is already stable.
 Leave Link  508 at Sat Aug  2 15:34:49 2025, MaxMem= 12348030976 cpu:               1.2 elap:               0.0
 (Enter /home/hhratchian/gaussian/gdv-20250101-j30+/gdv/l601.exe)
 Copying SCF densities to generalized density rwf, IOpCl= 0 IROHF=0.
 
 **********************************************************************
 
               Population analysis using the SCF Density.
 
 **********************************************************************
 
 Orbital symmetries:
       Occupied  (SGG)
       Virtual   (SGU)
 The electronic state is 1-SGG.
 Alpha  occ. eigenvalues --       -0.59022
 Alpha virt. eigenvalues --        0.70064
          Condensed to atoms (all electrons):
               1          2
     1  H    0.595925   0.404075
     2  H    0.404075   0.595925
 Mulliken charges:
               1
     1  H   -0.000000
     2  H   -0.000000
 Sum of Mulliken charges=  -0.00000
 Mulliken charges with hydrogens summed into heavy atoms:
               1
 Electronic spatial extent (au):  <R**2>=              4.7224
 Charge=             -0.0000 electrons
 Dipole moment (field-independent basis, Debye):
    X=             -0.0000    Y=              0.0000    Z=              0.0000  Tot=              0.0000
 Quadrupole moment (field-independent basis, Debye-Ang):
   XX=             -1.8430   YY=             -1.8430   ZZ=             -1.4474
   XY=              0.0000   XZ=             -0.0000   YZ=              0.0000
 Traceless Quadrupole moment (field-independent basis, Debye-Ang):
   XX=             -0.1319   YY=             -0.1319   ZZ=              0.2637
   XY=              0.0000   XZ=             -0.0000   YZ=              0.0000
 Octapole moment (field-independent basis, Debye-Ang**2):
  XXX=             -0.0000  YYY=              0.0000  ZZZ=             -0.0000  XYY=             -0.0000
  XXY=              0.0000  XXZ=              0.0000  XZZ=             -0.0000  YZZ=              0.0000
  YYZ=              0.0000  XYZ=              0.0000
 Hexadecapole moment (field-independent basis, Debye-Ang**3):
 XXXX=             -1.5239 YYYY=             -1.5239 ZZZZ=             -2.3362 XXXY=              0.0000
 XXXZ=              0.0000 YYYX=              0.0000 YYYZ=              0.0000 ZZZX=              0.0000
 ZZZY=              0.0000 XXYY=             -0.5080 XXZZ=             -0.6529 YYZZ=             -0.6529
 XXYZ=              0.0000 YYXZ=              0.0000 ZZXY=              0.0000
 N-N=           0.742979 E-N=          -3.748950  KE=           1.208410
 Symmetry AG   KE=           1.208410
 Symmetry B1G  KE=           0.000000
 Symmetry B2G  KE=           0.000000
 Symmetry B3G  KE=           0.000000
 Symmetry AU   KE=           0.000000
 Symmetry B1U  KE=           0.000000
 Symmetry B2U  KE=           0.000000
 Symmetry B3U  KE=           0.000000
 No NMR shielding tensors so no spin-rotation constants.
 Leave Link  601 at Sat Aug  2 15:34:49 2025, MaxMem= 12348030976 cpu:               2.0 elap:               0.1
 (Enter /home/hhratchian/gaussian/gdv-20250101-j30+/gdv/local/l9999.exe)
 Unable to Open any file for archive entry.
 1\1\GINC-HMNODE006\Stability\RHF\Gen\H2\AABOUTAKA\02-Aug-2025\0\\#P HF
  chkbasis Geom=AllCheck Guess=Read Stable=Opt SCF=(fermi,novaracc)\\In
 itial Stability Check for H2\\0,1\H,0,0.,0.,0.0138815247\H,0,0.,0.,0.7
 261184753\\Version=ES64L-GDVRevJ.30+\State=1-SGG\HF=-1.1175059\RMSD=5.
 551e-17\Dipole=0.,0.,0.\Quadrupole=-0.0980364,-0.0980364,0.1960728,0.,
 0.,0.\PG=D*H [C*(H1.H1)]\\@
 The archive entry for this job was punched.


 A MAN BEGINS CUTTING HIS WISDOM TEETH THE 1ST
 TIME HE BITES OFF MORE THAN HE CAN CHEW.
 Job cpu time:       0 days  0 hours  0 minutes 22.5 seconds.
 Elapsed time:       0 days  0 hours  0 minutes  1.2 seconds.
 File lengths (MBytes):  RWF=     30 Int=      0 D2E=      0 Chk=     73 Scr=      2
 Normal termination of Gaussian DV at Sat Aug  2 15:34:49 2025.
