 Set GAUSS_MDEF to "92GB".
 Set GAUSS_PDEF to "56".
 Entering Gaussian System, Link 0=gdv
 AtFile(1): SDDPlusTZ.gbs
            ! SDDPlusTZ Basis Set + ECP
            !
            !
            ! Last updated/modified by: H. P. Hratchian, August 2017.
            !
            !
            ! This file contains parameters for the SDD+TZ basis set and ECP, given in the
            ! Gaussian input format. This set is often used in the Hratchian Group's metal
            ! oxide cluster work. References to this basis and ECP are:
            !      (1) Waller, S. E.; Mann, J. E.; Rothgeb, D. W.; Jarrold, C. C. J. Phys.
            !          Chem. A 2012, 116 (39), 9639–9652.
            !      (2) Mayhall, N. J.; Rothgeb, D. W.; Hossain, E.; Raghavachari, K.;
            !          Jarrold, C. C. J. Chem. Phys. 2009, 130, 124313− 124323.
            !      (3) Andrae, D.; Haussermann, U.; Dolg, M.; Stoll, H.; Preuss, H. Theor.
            !          Chim. Acta 1990, 77, 123−141.
            !
            -Sc 0
            SDD
            S 1 1.00
             0.003 1.0
            P 1 1.00
             0.0071415 1.0
            D 1 1.00
             0.012 1.0
             F   1 1.00
                  0.180    1.0
             F   1 1.00
                  0.764    1.0
             G   1 1.00
                  0.347    1.0
            ****
            -Ti 0
            SDD
            S 1 1.00
             0.003 1.0
            P 1 1.00
             0.0071352 1.0
            D 1 1.00
             0.015 1.0
             F   1 1.00
                  0.285    1.0
             F   1 1.00
                  1.264    1.0
             G   1 1.00
                  0.636    1.0
            ****
            -V 0
            SDD
            S 1 1.00
             0.003 1.0
            P 1 1.00
             0.0079179 1.0
            D 1 1.00
             0.018 1.0
             F   1 1.00
                  0.425    1.0
             F   1 1.00
                  1.788    1.0
             G   1 1.00
                  1.048    1.0
            ****
            -Cr 0
            SDD
            S 1 1.00
             0.003 1.0
            P 1 1.00
             0.0079935 1.0
            D 1 1.00
             0.021 1.0
             F   1 1.00
                  0.640    1.0
             F   1 1.00
                  2.555    1.0
             G   1 1.00
                  1.712    1.0
            ****
            -Mn 0
            SDD
            S 1 1.00
             0.003 1.0
            P 1 1.00
             0.0084888 1.0
            D 1 1.00
             0.021 1.0
             F   1 1.00
                  0.795    1.0
             F   1 1.00
                  3.118    1.0
             G   1 1.00
                  1.964    1.0
            ****
            -Fe 0
            SDD
            S 1 1.00
             0.003 1.0
            P 1 1.00
             0.0088332 1.0
            D 1 1.00
             0.024 1.0
             F   1 1.00
                  0.871    1.0
             F   1 1.00
                  3.516    1.0
             G   1 1.00
                  2.269    1.0
            ****
            -Co 0
            SDD
            S 1 1.00
             0.003 1.0
            P 1 1.00
             0.0091782 1.0
            D 1 1.00
             0.027 1.0
             F   1 1.00
                  1.019    1.0
             F   1 1.00
                  4.076    1.0
             G   1 1.00
                  2.711    1.0
            ****
            -Ni 0
            SDD
            S 1 1.00
             0.003 1.0
            P 1 1.00
             0.0095352 1.0
            D 1 1.00
             0.027 1.0
             F   1 1.00
                  1.182    1.0
             F   1 1.00
                  4.685    1.0
             G   1 1.00
                  3.212    1.0
            ****
            -Cu 0
            SDD
            S 1 1.00
             0.003 1.0
            P 1 1.00
             0.0092634 1.0
            D 1 1.00
             0.030 1.0
             F   1 1.00
                  1.315    1.0
             F   1 1.00
                  5.208    1.0
             G   1 1.00
                  3.665    1.0
            ****
            -Zn 0
            SDD
            S 1 1.00
             0.003 1.0
            P 1 1.00
             0.0149958 1.0
            D 1 1.00
             0.033 1.0
             F   1 1.00
                  1.498    1.0
             F   1 1.00
                  5.871    1.0
             G   1 1.00
                  4.365    1.0
            ****
            -Y 0
            SDD
            S 1 1.00
             0.003 1.0
            P 1 1.00
             0.0066708 1.0
            D 1 1.00
             0.006 1.0
             F   1 1.00
                  0.144    1.0
             F   1 1.00
                  0.546    1.0
             G   1 1.00
                  0.249    1.0
            ****
            -Zr 0
            SDD
            S 1 1.00
             0.0033 1.0
            P 1 1.00
             0.0067569 1.0
            D 1 1.00
             0.009 1.0
             F   1 1.00
                  0.236    1.0
             F   1 1.00
                  0.883    1.0
             G   1 1.00
                  0.547    1.0
            ****
            -Nb 0
            SDD
            S 1 1.00
             0.0045 1.0
            P 1 1.00
             0.0701512 1.0
            D 1 1.00
             0.011 1.0
             F    1 1.00
                   0.261   1.0
             F    1 1.00
                   0.970   1.0
             G    1 1.00
                   0.536   1.0
            ****
            -Mo 0
            SDD
            S 1 1.00
             0.0045 1.0
            P 1 1.00
             0.0070821 1.0
            D 1 1.00
             0.0129 1.0
             F   1 1.00
                  0.338    1.0
             F   1 1.00
                  1.223    1.0
             G   1 1.00
                  0.744    1.0
            ****
            -Ru 0
            SDD
            S 1 1.00
             0.0048 1.0
            P 1 1.00
             0.0068781 1.0
            D 1 1.00
             0.0153 1.0
             F   1 1.00
                  0.478    1.0
             F   1 1.00
                  1.666    1.0
             G   1 1.00
                  1.057    1.0
            ****
            -Rh 0
            SDD
            S 1 1.00
             0.0048 1.0
            P 1 1.00
             0.007251 1.0
            D 1 1.00
             0.0165 1.0
             F   1 1.00
                  0.567    1.0
             F   1 1.00
                  1.989    1.0
             G   1 1.00
                  1.236    1.0
            ****
            -Pd 0
            SDD
            S 1 1.00
             0.0048 1.0
            P 1 1.00
             0.0074262 1.0
            D 1 1.00
             0.018 1.0
             F   1 1.00
                  0.621    1.0
             F   1 1.00
                  2.203    1.0
             G   1 1.00
                  1.385    1.0
            ****
            -Ag 0
            SDD
            S 1 1.00
             0.0048 1.0
            P 1 1.00
             0.0071169 1.0
            D 1 1.00
             0.0198 1.0
             F   1 1.00
                  0.732    1.0
             F   1 1.00
                  2.537    1.0
             G   1 1.00
                  1.587    1.0
            ****
            -Cd 0
            SDD
            S 1 1.00
             0.0057 1.0
            P 1 1.00
             0.0109932 1.0
            D 1 1.00
             0.0225 1.0
             F   1 1.00
                  0.834    1.0
             F   1 1.00
                  2.853    1.0
             G   1 1.00
                  1.795    1.0
            ****
            -W 0
             SDD
            S 1 1.00
             0.0045 1.0
            P 1 1.00
             0.0081084 1.0
            D 1 1.00
             0.012 1.0
             F   1 1.00
                  0.256    1.0
             F   1 1.00
                  0.825    1.0
             G   1 1.00
                  0.627    1.0
            ****
            -Os 0
            SDD
            S 1 1.00
             0.0045 1.0
            P 1 1.00
             0.0079971 1.0
            D 1 1.00
             0.015 1.0
             F   1 1.00
                  0.347    1.0
             F   1 1.00
                  1.067    1.0
             G   1 1.00
                  0.860    1.0
            ****
            -Ir 0
            SDD
            S 1 1.00
             0.0045 1.0
            P 1 1.00
             0.0082092 1.0
            D 1 1.00
             0.015 1.0
             F   1 1.00
                  0.395    1.0
             F   1 1.00
                  1.189    1.0
             G   1 1.00
                  0.982    1.0
            ****
            -Pt 0
            SDD
            S 1 1.00
             0.0045 1.0
            P 1 1.00
             0.0083406 1.0
            D 1 1.00
             0.015 1.0
             F   1 1.00
                  0.443    1.0
             F   1 1.00
                  1.323    1.0
             G   1 1.00
                  1.100    1.0
            ****
            -Au 0
            SDD
            S 1 1.00
             0.0019245 1.0
            P 1 1.00
             0.0102 1.0
            D 1 1.00
             0.0136536 1.0
             F   1 1.00
                  1.461    1.0
             F   1 1.00
                  0.498    1.0
             G   1 1.00
                  1.218    1.0
            ****
            !
            ! Gd ... HPH Added S, P, D, and F diffuse functions using 0.3 exponent ratio.
            -Gd 0
            SDD
            S 1 1.00
             0.0071100 1.0
            P 1 1.00
             0.0240000 1.0
            D 1 1.00
             0.0311100 1.0
            F 1 1.00
             0.0856500 1.0
            ****
            -H  B  C  N  O  F  P  S  Cl 0
            aug-cc-pVTz
            ****
            
            -Sc  Ti  V  Cr  Mn  Fe  Co  Ni  Cu  Zn  Y  Zr  Nb  Mo  Ru  Rh  Pd  Ag  Cd  W  Os  Ir  Pt  Au  Gd  0
            SDD
 Initial command:
 /home/hhratchian/gaussian/gdv-20250101-j30+/gdv/local/l1.exe "/scratch/aaboutaka/1562804/Gau-84414.inp" -scrdir="/scratch/aaboutaka/1562804/"
 Default is to use a total of  56 processors:
                               56 via shared-memory
                                1 via Linda
 Entering Link 1 = /home/hhratchian/gaussian/gdv-20250101-j30+/gdv/local/l1.exe PID=     84415.
  
 Copyright (c) 1988-2024, Gaussian, Inc.  All Rights Reserved.
  
 This is the private, development version of
 the Gaussian(R) DV system of programs. It is based on
 the Gaussian(R) 16 system (copyright 2016, Gaussian, Inc.),
 the Gaussian(R) 09 system (copyright 2009, Gaussian, Inc.),
 the Gaussian(R) 03 system (copyright 2003, Gaussian, Inc.),
 the Gaussian(R) 98 system (copyright 1998, Gaussian, Inc.),
 the Gaussian(R) 94 system (copyright 1995, Gaussian, Inc.),
 the Gaussian 92(TM) system (copyright 1992, Gaussian, Inc.),
 the Gaussian 90(TM) system (copyright 1990, Gaussian, Inc.),
 the Gaussian 88(TM) system (copyright 1988, Gaussian, Inc.),
 the Gaussian 86(TM) system (copyright 1986, Carnegie Mellon
 University), and the Gaussian 82(TM) system (copyright 1983,
 Carnegie Mellon University). Gaussian is a federally registered
 trademark of Gaussian, Inc.
  
 This software contains proprietary and confidential information,
 including trade secrets, belonging to Gaussian, Inc.
  
 This software is provided under written license and may be
 used, copied, transmitted, or stored only in accord with that
 written license.
  
 The following legend is applicable only to US Government
 contracts under FAR:
  
                    RESTRICTED RIGHTS LEGEND
  
 Use, reproduction and disclosure by the US Government is
 subject to restrictions as set forth in subparagraphs (a)
 and (c) of the Commercial Computer Software - Restricted
 Rights clause in FAR 52.227-19.
  
 Gaussian, Inc.
 340 Quinnipiac St., Bldg. 40, Wallingford CT 06492
  
  
 ---------------------------------------------------------------
 Warning -- This program may not be used in any manner that
 competes with the business of Gaussian, Inc. or will provide
 assistance to any competitor of Gaussian, Inc.  The licensee
 of this program is prohibited from giving any competitor of
 Gaussian, Inc. access to this program.  By using this program,
 the user acknowledges that Gaussian, Inc. is engaged in the
 business of creating and licensing software in the field of
 computational chemistry and represents and warrants to the
 licensee that it is not a competitor of Gaussian, Inc. and that
 it will not use this program in any manner prohibited above.
 ---------------------------------------------------------------
  

 Cite this work as:
 Gaussian Development Version, Revision J.30+,
 M. J. Frisch, G. W. Trucks, G. Scalmani, J. R. Cheeseman, X. Li, 
 J. Bloino, B. G. Janesko, A. V. Marenich, J. Zheng, F. Lipparini, 
 A. Jenkins, A. Liu, H. Liu, H. B. Schlegel, G. E. Scuseria, 
 M. A. Robb, V. Barone, G. A. Petersson, H. Nakatsuji, B. Mennucci, 
 C. Adamo, N. Rega, M. Caricato, H. P. Hratchian, J. V. Ortiz, 
 F. Pawlowski, A. F. Izmaylov, H. Hu, C. Liao, J. L. Sonnenberg, 
 D. Williams-Young, F. Ding, R. Gomperts, F. Egidi, J. Goings, 
 B. Peng, A. Petrone, T. Henderson, D. Ranasinghe, V. G. Zakrzewski, 
 J. Gao, G. Zheng, W. Liang, M. Hada, M. Ehara, K. Toyota, R. Fukuda, 
 J. Hasegawa, M. Ishida, T. Nakajima, Y. Honda, O. Kitao, H. Nakai, 
 T. Vreven, K. Throssell, J. A. Montgomery, Jr., J. E. Peralta, 
 F. Ogliaro, M. J. Bearpark, J. J. Heyd, E. N. Brothers, K. N. Kudin, 
 V. N. Staroverov, T. A. Keith, R. Kobayashi, J. Normand, 
 K. Raghavachari, A. P. Rendell, J. C. Burant, S. S. Iyengar, 
 M. Cossi, J. M. Millam, M. Klene, R. Cammi, R. L. Martin, O. Farkas, 
 J. B. Foresman, and D. J. Fox, Gaussian, Inc., Wallingford CT, 2024.
 
 *******************************************
 Gaussian DV:  ES64L-GDVRevJ.30+ 18-Dec-2024
                  2-Aug-2025 
 *******************************************
 %Chk=H2O_HF_genecp.chk
 ------------------------------------------------------
 #P HF/genecp SCF=(fermi,novaracc) Guess=Mix Stable=Opt
 ------------------------------------------------------
 1/37=210000000,38=1,172=1/1;
 2/12=2/2;
 3/5=7,11=2,16=1,17=8,25=1,30=1/1,2,3;
 4/13=-1/1;
 5/5=2,22=13,38=1/2;
 6/7=2,8=2,9=2,10=2,28=1/1;
 8/6=1,10=90,11=11/1;
 9/8=-3,42=1,46=1/14;
 5/5=2,8=3,17=40,22=13,38=1/8(-2);
 6/7=2,8=2,9=2,10=2,28=1/1;
 99/5=1,9=1/99;
 Leave Link    1 at Sat Aug  2 15:35:19 2025, MaxMem=           0 cpu:               1.5 elap:               0.1
 (Enter /home/hhratchian/gaussian/gdv-20250101-j30+/gdv/local/l101.exe)
 
  Hrant - IAPOps =                         0
  Hrant - IAPOp1 =                         0
  Hrant - IAPOp2 =                         0
  Hrant - DoAP   =   F
 
 -------------------------------
 Initial Stability Check for H2O
 -------------------------------
 Symbolic Z-matrix:
 Charge =     0 Multiplicity =     1
 O                     0.        0.        0. 
 H                     0.7586    0.        0.50428 
 H                    -0.7586    0.        0.50428 
 
 ITRead=  0  0  0
 MicOpt= -1 -1 -1
 NAtoms=      3 NQM=        3 NQMF=       0 NMMI=      0 NMMIF=      0
                NMic=       0 NMicF=      0.
                    Isotopes and Nuclear Properties:
 (Nuclear quadrupole moments (NQMom) in fm**2, nuclear magnetic moments (NMagM)
  in nuclear magnetons)

  Atom         1           2           3
 IAtWgt=          16           1           1
 AtmWgt=  15.9949146   1.0078250   1.0078250
 NucSpn=           0           1           1
 AtZEff=   -0.000000   -0.000000   -0.000000
 NQMom=    0.0000000   0.0000000   0.0000000
 NMagM=    0.0000000   2.7928460   2.7928460
 AtZNuc=   8.0000000   1.0000000   1.0000000
 Leave Link  101 at Sat Aug  2 15:35:19 2025, MaxMem= 12348030976 cpu:               1.4 elap:               0.1
 (Enter /home/hhratchian/gaussian/gdv-20250101-j30+/gdv/l202.exe)
                          Input orientation:                          
 ---------------------------------------------------------------------
 Center     Atomic      Atomic             Coordinates (Angstroms)
 Number     Number       Type             X           Y           Z
 ---------------------------------------------------------------------
      1          8           0        0.000000    0.000000    0.000000
      2          1           0        0.758602    0.000000    0.504284
      3          1           0       -0.758602   -0.000000    0.504284
 ---------------------------------------------------------------------
                    Distance matrix (angstroms):
                    1          2          3
     1  O    0.000000
     2  H    0.910922   0.000000
     3  H    0.910922   1.517204   0.000000
 Stoichiometry    H2O
 Framework group  C2V[C2(O),SGV(H2)]
 Deg. of freedom     2
 Full point group                 C2V     NOp   4
 Largest Abelian subgroup         C2V     NOp   4
 Largest concise Abelian subgroup C2      NOp   2
                         Standard orientation:                         
 ---------------------------------------------------------------------
 Center     Atomic      Atomic             Coordinates (Angstroms)
 Number     Number       Type             X           Y           Z
 ---------------------------------------------------------------------
      1          8           0        0.000000    0.000000    0.100857
      2          1           0       -0.000000    0.758602   -0.403427
      3          1           0       -0.000000   -0.758602   -0.403427
 ---------------------------------------------------------------------
 Rotational constants (GHZ):        1110.1894251         435.6864908         312.8935057
 Leave Link  202 at Sat Aug  2 15:35:19 2025, MaxMem= 12348030976 cpu:               0.2 elap:               0.0
 (Enter /home/hhratchian/gaussian/gdv-20250101-j30+/gdv/local/l301.exe)
 General  basis read from cards:  (5D, 7F)
 Centers:       1      2      3
 aug-cc-pVTz
 ****
 ======================================================================================================
                                       Pseudopotential Parameters
 ======================================================================================================
  Center     Atomic      Valence      Angular      Power
  Number     Number     Electrons     Momentum     of R      Exponent        Coefficient   SO-Coeffient
 ======================================================================================================
    1          8
                                   No pseudopotential on this center.
    2          1
                                   No pseudopotential on this center.
    3          1
                                   No pseudopotential on this center.
 ======================================================================================================
 Ernie: Thresh=  0.10000D-02 Tol=  0.10000D-05 Strict=F.
 Ernie:  3 primitive shells out of 52 were deleted.
 There are    42 symmetry adapted cartesian basis functions of A1  symmetry.
 There are    12 symmetry adapted cartesian basis functions of A2  symmetry.
 There are    20 symmetry adapted cartesian basis functions of B1  symmetry.
 There are    31 symmetry adapted cartesian basis functions of B2  symmetry.
 There are    35 symmetry adapted basis functions of A1  symmetry.
 There are    12 symmetry adapted basis functions of A2  symmetry.
 There are    18 symmetry adapted basis functions of B1  symmetry.
 There are    27 symmetry adapted basis functions of B2  symmetry.
    92 basis functions,   126 primitive gaussians,   105 cartesian basis functions
     5 alpha electrons        5 beta electrons
       nuclear repulsion energy         9.6435792538 Hartrees.
 IExCor=         0 DFT=F Ex=HF Corr=None N6=None ScaHFX=  1.000000
 ScaDFX=  1.000000  1.000000  1.000000  1.000000  1.000000  0.000000
 ScaDFX=  0.000000  0.000000  0.000000  0.000000  0.000000  0.000000
 Grid=UltraFine IRanWt=     -1 IRanGd=            0 ICorTp=0 IEDCtl=  2004
 NAtoms=    3 NActive=    3 NUniq=    2 SFac= 2.25D+00 NAtFMM=   60 NAOKFM=F Big=F
 Integral buffers will be    131072 words long.
 Raffenetti 2 integral format.
 Two-electron integral symmetry is turned on.
 Leave Link  301 at Sat Aug  2 15:35:19 2025, MaxMem= 12348030976 cpu:               0.2 elap:               0.1
 (Enter /home/hhratchian/gaussian/gdv-20250101-j30+/gdv/l302.exe)
 NPDir=0 NMtPBC=     1 NCelOv=     1 NCel=       1 NClECP=     1 NCelD=      1
         NCelK=      1 NCelE2=     1 NClLst=     1 CellRange=     0.0.
 One-electron integrals computed using PRISM.
 One-electron integral symmetry used in STVInt
   4 Symmetry operations used in ECPInt.
 ECPInt:  NShTT=     528 NPrTT=    1270 LenC2=     529 LenP2D=    1253.
 LDataN:  DoStor=T MaxTD1= 6 Len=  172
 NBasis=    92 RedAO= T EigKep=  3.31D-04  NBF=    35    12    18    27
 NBsUse=    92 1.00D-06 EigRej= -1.00D+00 NBFU=    35    12    18    27
 Leave Link  302 at Sat Aug  2 15:35:19 2025, MaxMem= 12348030976 cpu:               5.3 elap:               0.2
 (Enter /home/hhratchian/gaussian/gdv-20250101-j30+/gdv/l303.exe)
 DipDrv:  MaxL=1.
 Leave Link  303 at Sat Aug  2 15:35:19 2025, MaxMem= 12348030976 cpu:               1.4 elap:               0.1
 (Enter /home/hhratchian/gaussian/gdv-20250101-j30+/gdv/l401.exe)
 ExpMin= 2.53D-02 ExpMax= 1.53D+04 ExpMxC= 5.22D+02 IAcc=3 Grid=UltraFine AccDes= 0.00D+00
 Harris functional with IExCor= 2005 and Grid=UltraFine diagonalized for initial guess.
 HarFok:  IExCor=    2005 AccDes= 0.00D+00 Grid=UltraFine IDoV= 1 UseB2=F ITyADJ=14 ICtDFT=  3500011
 FoFCou: FMM=F IPFlag=           0 FMFlag=      100000 FMFlg1=           0
         NFxFlg=           0 DoJE=T BraDBF=F KetDBF=T FulRan=T
         wScrn=  0.000000 ICntrl=       500 IOpCl=  0 I1Cent=   200000004 NGrid=           0
         NMat0=    1 NMatS0=      1 NMatT0=    0 NMatD0=    1 NMtDS0=    0 NMtDT0=    0
 Petite list used in FoFCou.
 Harris En= -76.1535293365476    
 JPrj=0 DoOrth=F DoCkMO=T.
 Mixing orbitals, IMix= 1 IMixAn=  0 NRI=1 NE=    5 Coef=  7.07106781D-01  7.07106781D-01
 Initial guess orbital symmetries:
       Occupied  (A1) (A1) (B2) (A1) (?A)
       Virtual   (?A) (B2) (A1) (B1) (A1) (B2) (B2) (A1) (A2) (A1)
                 (B1) (B2) (A1) (B2) (B2) (A1) (A1) (B1) (A2) (A1)
                 (A1) (B1) (B1) (B2) (A2) (B2) (A1) (B2) (A1) (B1)
                 (B2) (A1) (A2) (B2) (A2) (A1) (B1) (A1) (B2) (B2)
                 (A1) (B1) (A1) (A2) (A1) (B2) (B1) (A1) (B1) (B2)
                 (A1) (A2) (B2) (B2) (A1) (B1) (A2) (B2) (A1) (B1)
                 (A2) (A1) (B2) (B1) (A1) (B2) (B2) (A2) (A1) (B2)
                 (B1) (A1) (A1) (B2) (B1) (A1) (B1) (A1) (A2) (B1)
                 (A2) (B2) (A1) (B2) (A1) (B2) (A1)
 Leave Link  401 at Sat Aug  2 15:35:19 2025, MaxMem= 12348030976 cpu:               6.8 elap:               0.2
 (Enter /home/hhratchian/gaussian/gdv-20250101-j30+/gdv/local/l502.exe)
 Keep R1 ints in memory in symmetry-blocked form, NReq=36437402.
 FoFCou: FMM=F IPFlag=           0 FMFlag=           0 FMFlg1=           0
         NFxFlg=           0 DoJE=F BraDBF=F KetDBF=F FulRan=T
         wScrn=  0.000000 ICntrl=       600 IOpCl=  0 I1Cent=           0 NGrid=           0
         NMat0=    1 NMatS0=   4278 NMatT0=    0 NMatD0=    1 NMtDS0=    0 NMtDT0=    0
 Petite list used in FoFCou.
 Closed shell SCF:
 Using DIIS extrapolation, IDIIS=    10.
 NGot= 12348030976 LenX= 12345655041 LenY= 12345643575
 Requested convergence on RMS density matrix=1.00D-08 within 128 cycles.
 Requested convergence on MAX density matrix=1.00D-06.
 Requested convergence on             energy=1.00D-06.
 Level shift goal  0.100 maximum shift  0.100.
 No special actions if energy rises.
 Dynamic level shift is on during FON iterations.
 An orbital has undefined symmetry, so N**3 symmetry is turned off.
 
  Hrant - CycOpn.
 

 Cycle   1  Pass 1  IDiag  1:
 Density matrix breaks symmetry, PCut= 1.00D-07
 Density matrix has no symmetry -- integrals replicated.
 E= -75.6738032122315    
 DIIS: error= 6.10D-02 at cycle   1 NSaved=   1.
 NSaved= 1 IEnMin= 1 EnMin= -75.6738032122315     IErMin= 1 ErrMin= 6.10D-02
 ErrMax= 6.10D-02  0.00D+00 EMaxC= 1.00D+00 BMatC= 6.57D-02 BMatP= 6.57D-02
 Rises=F IDIUse=1 WtCom= 1.00D+00 WtEn= 0.00D+00
 Coeff-Com:  0.100D+01
 Coeff:      0.100D+01
 Gap=     0.262 Goal=     0.100 Shift=    0.000
 T= 1922. Gap= 0.464 NK=0 IS=    6 IE=   92 IFin=    5
          NO(<0.9)=   0  NV(>0.1)=   0      5.00e < EF      0.00e >EF  Err=0.0D+00
 GapD=    0.262 DampG=1.000 DampE=0.500 DampFc=0.5000 IDamp=-1.
 Damping current iteration by 5.00D-01
 RMSDP=3.97D-03 MaxDP=9.22D-02              OVMax= 4.83D-01

 Cycle   2  Pass 1  IDiag  1:
 Density matrix breaks symmetry, PCut= 1.00D-07
 Density matrix has no symmetry -- integrals replicated.
 E= -75.8050722240145     Delta-E=       -0.131269011783 Rises=F Damp=T AM=F Ri=F Fa=F
 DIIS: error= 4.33D-02 at cycle   2 NSaved=   2.
 NSaved= 2 IEnMin= 2 EnMin= -75.8050722240145     IErMin= 2 ErrMin= 4.33D-02
 ErrMax= 4.33D-02  0.00D+00 EMaxC= 1.00D+00 BMatC= 2.76D-02 BMatP= 6.57D-02
 Rises=F IDIUse=1 WtCom= 1.00D+00 WtEn= 0.00D+00
 Coeff-Com: -0.547D+00 0.155D+01
 Coeff:     -0.547D+00 0.155D+01
 Gap=     0.436 Goal=     0.100 Shift=    0.000
 T= 1860. Gap= 0.437 NK=0 IS=    6 IE=   92 IFin=    5
          NO(<0.9)=   0  NV(>0.1)=   0      5.00e < EF      0.00e >EF  Err=0.0D+00
 GapD=    0.436 DampG=2.000 DampE=0.500 DampFc=1.0000 IDamp=-1.
 RMSDP=2.53D-03 MaxDP=4.61D-02 DE=-1.31D-01 OVMax= 1.18D-01

 Cycle   3  Pass 1  IDiag  1:
 Density matrix breaks symmetry, PCut= 1.00D-07
 Density matrix has no symmetry -- integrals replicated.
 E= -76.0325626545371     Delta-E=       -0.227490430523 Rises=F Damp=F AM=F Ri=F Fa=F
 DIIS: error= 1.99D-02 at cycle   3 NSaved=   3.
 NSaved= 3 IEnMin= 3 EnMin= -76.0325626545371     IErMin= 3 ErrMin= 1.99D-02
 ErrMax= 1.99D-02  0.00D+00 EMaxC= 1.00D+00 BMatC= 3.85D-03 BMatP= 2.76D-02
 Rises=F IDIUse=1 WtCom= 1.00D+00 WtEn= 0.00D+00
 Coeff-Com: -0.195D+00 0.308D+00 0.887D+00
 Coeff:     -0.195D+00 0.308D+00 0.887D+00
 Gap=     0.516 Goal=     0.100 Shift=    0.000
 T= 1689. Gap= 0.524 NK=0 IS=    6 IE=   92 IFin=    5
          NO(<0.9)=   0  NV(>0.1)=   0      5.00e < EF      0.00e >EF  Err=0.0D+00
 GapD=    0.516 DampG=2.000 DampE=0.500 DampFc=1.0000 IDamp=-1.
 RMSDP=7.60D-04 MaxDP=1.91D-02 DE=-2.27D-01 OVMax= 9.76D-02

 Cycle   4  Pass 1  IDiag  1:
 Density matrix breaks symmetry, PCut= 1.00D-07
 Density matrix has no symmetry -- integrals replicated.
 E= -76.0524726971930     Delta-E=       -0.019910042656 Rises=F Damp=F AM=F Ri=F Fa=F
 DIIS: error= 1.01D-02 at cycle   4 NSaved=   4.
 NSaved= 4 IEnMin= 4 EnMin= -76.0524726971930     IErMin= 4 ErrMin= 1.01D-02
 ErrMax= 1.01D-02  0.00D+00 EMaxC= 1.00D+00 BMatC= 6.59D-04 BMatP= 3.85D-03
 Rises=F IDIUse=1 WtCom= 1.00D+00 WtEn= 0.00D+00
 Coeff-Com:  0.113D+00-0.208D+00-0.505D+00 0.160D+01
 Coeff:      0.113D+00-0.208D+00-0.505D+00 0.160D+01
 Gap=     0.543 Goal=     0.100 Shift=    0.000
 T= 1372. Gap= 0.547 NK=0 IS=    6 IE=   92 IFin=    5
          NO(<0.9)=   0  NV(>0.1)=   0      5.00e < EF      0.00e >EF  Err=0.0D+00
 GapD=    0.543 DampG=2.000 DampE=0.500 DampFc=1.0000 IDamp=-1.
 RMSDP=6.11D-04 MaxDP=1.71D-02 DE=-1.99D-02 OVMax= 7.44D-02

 Cycle   5  Pass 1  IDiag  1:
 Density matrix breaks symmetry, PCut= 1.00D-07
 Density matrix has no symmetry -- integrals replicated.
 E= -76.0581867056642     Delta-E=       -0.005714008471 Rises=F Damp=F AM=F Ri=F Fa=F
 DIIS: error= 1.64D-03 at cycle   5 NSaved=   5.
 NSaved= 5 IEnMin= 5 EnMin= -76.0581867056642     IErMin= 5 ErrMin= 1.64D-03
 ErrMax= 1.64D-03  0.00D+00 EMaxC= 1.00D+00 BMatC= 2.93D-05 BMatP= 6.59D-04
 Rises=F IDIUse=1 WtCom= 1.00D+00 WtEn= 0.00D+00
 Coeff-Com: -0.228D-01 0.396D-01 0.893D-01-0.398D+00 0.129D+01
 Coeff:     -0.228D-01 0.396D-01 0.893D-01-0.398D+00 0.129D+01
 Gap=     0.543 Goal=     0.100 Shift=    0.000
 T=  868. Gap= 0.543 NK=0 IS=    6 IE=   92 IFin=    5
          NO(<0.9)=   0  NV(>0.1)=   0      5.00e < EF      0.00e >EF  Err=0.0D+00
 GapD=    0.543 DampG=2.000 DampE=1.000 DampFc=2.0000 IDamp=-1.
 RMSDP=1.11D-04 MaxDP=2.01D-03 DE=-5.71D-03 OVMax= 1.19D-02

 Cycle   6  Pass 1  IDiag  1:
 Density matrix breaks symmetry, PCut= 1.00D-07
 Density matrix has no symmetry -- integrals replicated.
 E= -76.0583523155790     Delta-E=       -0.000165609915 Rises=F Damp=F AM=F Ri=F Fa=F
 DIIS: error= 2.95D-04 at cycle   6 NSaved=   6.
 NSaved= 6 IEnMin= 6 EnMin= -76.0583523155790     IErMin= 6 ErrMin= 2.95D-04
 ErrMax= 2.95D-04  0.00D+00 EMaxC= 1.00D+00 BMatC= 1.27D-06 BMatP= 2.93D-05
 Rises=F IDIUse=1 WtCom= 1.00D+00 WtEn= 0.00D+00
 Coeff-Com:  0.208D-02-0.466D-02 0.588D-02 0.111D-02-0.137D+00 0.113D+01
 Coeff:      0.208D-02-0.466D-02 0.588D-02 0.111D-02-0.137D+00 0.113D+01
 Gap=     0.543 Goal=     0.100 Shift=    0.000
 RMSDP=2.98D-05 MaxDP=6.76D-04 DE=-1.66D-04 OVMax= 1.59D-03

 Cycle   7  Pass 1  IDiag  1:
 Density matrix breaks symmetry, PCut= 1.00D-07
 Density matrix has no symmetry -- integrals replicated.
 E= -76.0583579298174     Delta-E=       -0.000005614238 Rises=F Damp=F AM=F Ri=F Fa=F
 DIIS: error= 9.51D-05 at cycle   7 NSaved=   7.
 NSaved= 7 IEnMin= 7 EnMin= -76.0583579298174     IErMin= 7 ErrMin= 9.51D-05
 ErrMax= 9.51D-05  0.00D+00 EMaxC= 1.00D+00 BMatC= 1.13D-07 BMatP= 1.27D-06
 Rises=F IDIUse=1 WtCom= 1.00D+00 WtEn= 0.00D+00
 Coeff-Com: -0.158D-04 0.750D-03-0.652D-02 0.210D-01-0.532D-01-0.240D+00
 Coeff-Com:  0.128D+01
 Coeff:     -0.158D-04 0.750D-03-0.652D-02 0.210D-01-0.532D-01-0.240D+00
 Coeff:      0.128D+01
 Gap=     0.543 Goal=     0.100 Shift=    0.000
 RMSDP=1.20D-05 MaxDP=3.88D-04 DE=-5.61D-06 OVMax= 4.88D-04

 Cycle   8  Pass 1  IDiag  1:
 Density matrix breaks symmetry, PCut= 1.00D-07
 Density matrix has no symmetry -- integrals replicated.
 E= -76.0583584532084     Delta-E=       -0.000000523391 Rises=F Damp=F AM=F Ri=F Fa=F
 DIIS: error= 1.35D-05 at cycle   8 NSaved=   8.
 NSaved= 8 IEnMin= 8 EnMin= -76.0583584532084     IErMin= 8 ErrMin= 1.35D-05
 ErrMax= 1.35D-05  0.00D+00 EMaxC= 1.00D+00 BMatC= 4.59D-09 BMatP= 1.13D-07
 Rises=F IDIUse=1 WtCom= 1.00D+00 WtEn= 0.00D+00
 Coeff-Com:  0.510D-04-0.328D-03 0.204D-02-0.755D-02 0.271D-01 0.680D-02
 Coeff-Com: -0.335D+00 0.131D+01
 Coeff:      0.510D-04-0.328D-03 0.204D-02-0.755D-02 0.271D-01 0.680D-02
 Coeff:     -0.335D+00 0.131D+01
 Gap=     0.543 Goal=     0.100 Shift=    0.000
 RMSDP=1.51D-06 MaxDP=3.45D-05 DE=-5.23D-07 OVMax= 1.06D-04

 Cycle   9  Pass 1  IDiag  1:
 Density matrix breaks symmetry, PCut= 1.00D-07
 Density matrix has no symmetry -- integrals replicated.
 E= -76.0583584717826     Delta-E=       -0.000000018574 Rises=F Damp=F AM=F Ri=F Fa=F
 DIIS: error= 5.41D-06 at cycle   9 NSaved=   9.
 NSaved= 9 IEnMin= 9 EnMin= -76.0583584717826     IErMin= 9 ErrMin= 5.41D-06
 ErrMax= 5.41D-06  0.00D+00 EMaxC= 1.00D+00 BMatC= 5.76D-10 BMatP= 4.59D-09
 Rises=F IDIUse=1 WtCom= 1.00D+00 WtEn= 0.00D+00
 Coeff-Com: -0.148D-03 0.245D-03 0.212D-03-0.849D-03 0.257D-02 0.287D-02
 Coeff-Com: -0.451D-01 0.829D-01 0.957D+00
 Coeff:     -0.148D-03 0.245D-03 0.212D-03-0.849D-03 0.257D-02 0.287D-02
 Coeff:     -0.451D-01 0.829D-01 0.957D+00
 Gap=     0.543 Goal=     0.100 Shift=    0.000
 RMSDP=2.63D-07 MaxDP=4.30D-06 DE=-1.86D-08 OVMax= 1.37D-05

 Cycle  10  Pass 1  IDiag  1:
 Density matrix breaks symmetry, PCut= 1.00D-07
 Density matrix has no symmetry -- integrals replicated.
 E= -76.0583584728543     Delta-E=       -0.000000001072 Rises=F Damp=F AM=F Ri=F Fa=F
 DIIS: error= 7.64D-07 at cycle  10 NSaved=  10.
 NSaved=10 IEnMin=10 EnMin= -76.0583584728543     IErMin=10 ErrMin= 7.64D-07
 ErrMax= 7.64D-07  0.00D+00 EMaxC= 1.00D+00 BMatC= 7.28D-12 BMatP= 5.76D-10
 Rises=F IDIUse=1 WtCom= 1.00D+00 WtEn= 0.00D+00
 Coeff-Com: -0.140D-05 0.421D-05-0.345D-04 0.946D-04-0.702D-03-0.470D-04
 Coeff-Com:  0.111D-01-0.491D-01-0.116D+00 0.115D+01
 Coeff:     -0.140D-05 0.421D-05-0.345D-04 0.946D-04-0.702D-03-0.470D-04
 Coeff:      0.111D-01-0.491D-01-0.116D+00 0.115D+01
 Gap=     0.543 Goal=     0.100 Shift=    0.000
 RMSDP=1.19D-07 MaxDP=4.15D-06 DE=-1.07D-09 OVMax= 7.40D-06

 Cycle  11  Pass 1  IDiag  1:
 Density matrix breaks symmetry, PCut= 1.00D-07
 Density matrix has no symmetry -- integrals replicated.
 E= -76.0583584729150     Delta-E=       -0.000000000061 Rises=F Damp=F AM=F Ri=F Fa=F
 DIIS: error= 1.53D-07 at cycle  11 NSaved=  11.
 NSaved=11 IEnMin=11 EnMin= -76.0583584729150     IErMin=11 ErrMin= 1.53D-07
 ErrMax= 1.53D-07  0.00D+00 EMaxC= 1.00D+00 BMatC= 4.83D-13 BMatP= 7.28D-12
 Rises=F IDIUse=1 WtCom= 1.00D+00 WtEn= 0.00D+00
 Coeff-Com: -0.108D-05 0.320D-06 0.162D-04-0.381D-04 0.312D-03 0.746D-04
 Coeff-Com: -0.555D-02 0.235D-01 0.614D-01-0.631D+00 0.155D+01
 Coeff:     -0.108D-05 0.320D-06 0.162D-04-0.381D-04 0.312D-03 0.746D-04
 Coeff:     -0.555D-02 0.235D-01 0.614D-01-0.631D+00 0.155D+01
 Gap=     0.543 Goal=     0.100 Shift=    0.000
 RMSDP=2.25D-08 MaxDP=7.48D-07 DE=-6.07D-11 OVMax= 1.27D-06

 Cycle  12  Pass 1  IDiag  1:
 E= -76.0583584729179     Delta-E=       -0.000000000003 Rises=F Damp=F AM=F Ri=F Fa=F
 DIIS: error= 3.06D-08 at cycle  12 NSaved=  12.
 NSaved=12 IEnMin=12 EnMin= -76.0583584729179     IErMin=12 ErrMin= 3.06D-08
 ErrMax= 3.06D-08  0.00D+00 EMaxC= 1.00D+00 BMatC= 1.78D-14 BMatP= 4.83D-13
 Rises=F IDIUse=1 WtCom= 1.00D+00 WtEn= 0.00D+00
 Coeff-Com: -0.393D-06 0.664D-06 0.753D-06-0.328D-05 0.114D-04 0.137D-04
 Coeff-Com: -0.149D-03 0.119D-03-0.186D-02 0.811D-02-0.118D+00 0.111D+01
 Coeff:     -0.393D-06 0.664D-06 0.753D-06-0.328D-05 0.114D-04 0.137D-04
 Coeff:     -0.149D-03 0.119D-03-0.186D-02 0.811D-02-0.118D+00 0.111D+01
 Gap=     0.543 Goal=     0.100 Shift=    0.000
 RMSDP=3.11D-09 MaxDP=7.88D-08 DE=-2.94D-12 OVMax= 1.82D-07

 SCF Done:  E(RHF) =  -76.0583584729     A.U. after   12 cycles
            NFock= 12  Conv=0.31D-08     -V/T= 1.9989
 KE=          76.144404 PE=        -199.991352 EE=          38.145011
 Leave Link  502 at Sat Aug  2 15:35:20 2025, MaxMem= 12348030976 cpu:              11.0 elap:               0.3
 (Enter /home/hhratchian/gaussian/gdv-20250101-j30+/gdv/l601.exe)
 Copying SCF densities to generalized density rwf, IOpCl= 0 IROHF=0.
 
 **********************************************************************
 
               Population analysis using the SCF Density.
 
 **********************************************************************
 
 Orbital symmetries:
       Occupied  (A1) (A1) (B2) (A1) (B1)
       Virtual   (A1) (B2) (A1) (B1) (A1) (B2) (B2) (A1) (A2) (B1)
                 (A1) (B2) (A1) (B2) (B2) (A1) (A1) (A2) (B1) (A1)
                 (B1) (A1) (B2) (A2) (B1) (B2) (A1) (A1) (B2) (B1)
                 (B2) (A2) (A1) (B2) (A2) (A1) (B1) (A1) (B2) (B2)
                 (A1) (B1) (A1) (A2) (B1) (A1) (B2) (A1) (B2) (B1)
                 (A1) (A2) (B2) (B2) (A1) (A2) (B1) (B2) (A1) (B1)
                 (A2) (A1) (B1) (B2) (A1) (B2) (B2) (A2) (B2) (A1)
                 (B1) (A1) (A1) (B2) (B1) (A1) (B1) (A1) (A2) (B1)
                 (A2) (B2) (A1) (B2) (A1) (B2) (A1)
 The electronic state is 1-A1.
 Alpha  occ. eigenvalues --      -20.55522      -1.37268      -0.76083      -0.57747      -0.51227
 Alpha virt. eigenvalues --        0.03046       0.04738       0.13695       0.15449       0.17468
 Alpha virt. eigenvalues --        0.18078       0.23384       0.24598       0.26300       0.31192
 Alpha virt. eigenvalues --        0.31852       0.36580       0.44815       0.47286       0.60934
 Alpha virt. eigenvalues --        0.65463       0.71416       0.71643       0.72803       0.84045
 Alpha virt. eigenvalues --        0.84825       0.88211       0.92030       0.92395       0.92422
 Alpha virt. eigenvalues --        0.92792       0.98550       1.04572       1.06431       1.09263
 Alpha virt. eigenvalues --        1.13137       1.17998       1.19006       1.24808       1.53121
 Alpha virt. eigenvalues --        1.57167       1.63801       1.77571       1.78350       2.08273
 Alpha virt. eigenvalues --        2.15228       2.26033       2.31293       2.33504       2.40977
 Alpha virt. eigenvalues --        2.42044       2.42517       2.46971       2.67373       2.69375
 Alpha virt. eigenvalues --        2.83032       2.90558       2.90845       3.71562       3.84661
 Alpha virt. eigenvalues --        4.03984       4.14944       4.27335       4.29453       4.39273
 Alpha virt. eigenvalues --        4.40572       4.43973       4.46485       4.48767       4.74492
 Alpha virt. eigenvalues --        4.84798       5.26389       5.31290       5.46995       5.51962
 Alpha virt. eigenvalues --        5.63342       5.84094       6.20117       6.53251       6.71920
 Alpha virt. eigenvalues --        6.88708       7.13889       7.26400       7.31032       7.37948
 Alpha virt. eigenvalues --        7.46758       7.60503       7.74878       8.03744       8.15150
 Alpha virt. eigenvalues --        8.97279      17.48091
          Condensed to atoms (all electrons):
               1          2          3
     1  O    7.760092   0.295479   0.295479
     2  H    0.295479   0.540428  -0.011433
     3  H    0.295479  -0.011433   0.540428
 Mulliken charges:
               1
     1  O   -0.351051
     2  H    0.175525
     3  H    0.175525
 Sum of Mulliken charges=  -0.00000
 Mulliken charges with hydrogens summed into heavy atoms:
               1
     1  O   -0.000000
 Electronic spatial extent (au):  <R**2>=             18.8916
 Charge=             -0.0000 electrons
 Dipole moment (field-independent basis, Debye):
    X=             -0.0000    Y=              0.0000    Z=             -1.8055  Tot=              1.8055
 Quadrupole moment (field-independent basis, Debye-Ang):
   XX=             -7.4618   YY=             -4.0215   ZZ=             -6.4440
   XY=              0.0000   XZ=              0.0000   YZ=              0.0000
 Traceless Quadrupole moment (field-independent basis, Debye-Ang):
   XX=             -1.4861   YY=              1.9543   ZZ=             -0.4682
   XY=              0.0000   XZ=              0.0000   YZ=              0.0000
 Octapole moment (field-independent basis, Debye-Ang**2):
  XXX=              0.0000  YYY=              0.0000  ZZZ=             -1.0312  XYY=             -0.0000
  XXY=              0.0000  XXZ=             -0.2629  XZZ=              0.0000  YZZ=              0.0000
  YYZ=             -1.2686  XYZ=             -0.0000
 Hexadecapole moment (field-independent basis, Debye-Ang**3):
 XXXX=             -6.6147 YYYY=             -5.4090 ZZZZ=             -6.8852 XXXY=             -0.0000
 XXXZ=             -0.0000 YYYX=             -0.0000 YYYZ=             -0.0000 ZZZX=             -0.0000
 ZZZY=             -0.0000 XXYY=             -2.3503 XXZZ=             -2.2770 YYZZ=             -1.8764
 XXYZ=              0.0000 YYXZ=              0.0000 ZZXY=             -0.0000
 N-N=           9.643579 E-N=        -199.991353  KE=          76.144404
 Symmetry A1   KE=          68.007903
 Symmetry A2   KE=           0.000000
 Symmetry B1   KE=           4.453992
 Symmetry B2   KE=           3.682509
 No NMR shielding tensors so no spin-rotation constants.
 Leave Link  601 at Sat Aug  2 15:35:20 2025, MaxMem= 12348030976 cpu:               5.0 elap:               0.1
 (Enter /home/hhratchian/gaussian/gdv-20250101-j30+/gdv/l801.exe)
 Range of M.O.s used for correlation:     1    92
 NBasis=    92 NAE=     5 NBE=     5 NFC=     0 NFV=     0
 NROrb=     92 NOA=     5 NOB=     5 NVA=    87 NVB=    87

 **** Warning!!: The largest alpha MO coefficient is  0.16825574D+02

 Leave Link  801 at Sat Aug  2 15:35:20 2025, MaxMem= 12348030976 cpu:               0.1 elap:               0.0
 (Enter /home/hhratchian/gaussian/gdv-20250101-j30+/gdv/l914.exe)
 RHF ground state
 Doing stability rather than CIS.
 Keep R1 and R2 ints in memory in symmetry-blocked form, NReq=36437749.
 FoFCou: FMM=F IPFlag=           0 FMFlag=           0 FMFlg1=           0
         NFxFlg=           0 DoJE=F BraDBF=F KetDBF=F FulRan=T
         wScrn=  0.000000 ICntrl=       600 IOpCl=  0 I1Cent=           0 NGrid=           0
         NMat0=    1 NMatS0=   4278 NMatT0=    0 NMatD0=    1 NMtDS0=    0 NMtDT0=    0
 Petite list used in FoFCou.
 MDV= 12348030976 DFT=F IDoStb=1 Mixed=F DoRPA=F DoScal=F NonHer=F
 Making orbital integer symmetry assigments:
 Orbital symmetries:
       Occupied  (A1) (A1) (B2) (A1) (B1)
       Virtual   (A1) (B2) (A1) (B1) (A1) (B2) (B2) (A1) (A2) (B1)
                 (A1) (B2) (A1) (B2) (B2) (A1) (A1) (A2) (B1) (A1)
                 (B1) (A1) (B2) (A2) (B1) (B2) (A1) (A1) (B2) (B1)
                 (B2) (A2) (A1) (B2) (A2) (A1) (B1) (A1) (B2) (B2)
                 (A1) (B1) (A1) (A2) (B1) (A1) (B2) (A1) (B2) (B1)
                 (A1) (A2) (B2) (B2) (A1) (A2) (B1) (B2) (A1) (B1)
                 (A2) (A1) (B1) (B2) (A1) (B2) (B2) (A2) (B2) (A1)
                 (B1) (A1) (A1) (B2) (B1) (A1) (B1) (A1) (A2) (B1)
                 (A2) (B2) (A1) (B2) (A1) (B2) (A1)
    24 initial guesses have been made.
 Convergence on wavefunction:    0.001000000000000
 Davidson Disk Diagonalization:  ConvIn= 1.00D-03 SkipCon=T Conv= 1.00D-03.
 Max sub-space:  1740 initial roots:    24 roots to seek:     1 dimension of matrix:          870
 Iteration     1 Dimension    24 NMult     0 NNew     24
 CISAX will form    24 AO SS matrices at one time.
 NMat=    24 NSing=    12 JSym2X= 2.
 New state      1 was old state      2
 Excitation Energies [eV] at current iteration:
 Root      1 :     8.105221590699690
 Root      2 :     9.293976001169334
 Root      3 :     9.865917623130720
 Root      4 :    10.266381319390254
 Root      5 :    10.348093573305498
 Root      6 :    10.742412894621399
 Root      7 :    11.127749904081627
 Root      8 :    11.264952795030499
 Root      9 :    11.837909887972833
 Root     10 :    11.929011371303396
 Root     11 :    12.381890235674851
 Root     12 :    12.449221556133907
 Root     13 :    12.481612704829768
 Root     14 :    12.866848870042595
 Root     15 :    13.031552920776731
 Root     16 :    13.091050777163623
 Root     17 :    13.325351285946338
 Root     18 :    13.799178332941350
 Root     19 :    13.964109974769626
 Root     20 :    14.030240775374429
 Root     21 :    14.082127802460498
 Root     22 :    14.149702172042067
 Root     23 :    14.583963644647319
 Root     24 :    18.454605552074824
 Iteration     2 Dimension    48 NMult    24 NNew     24
 CISAX will form    24 AO SS matrices at one time.
 NMat=    24 NSing=    12 JSym2X= 2.
 Root      1 not converged, maximum delta is    0.031408745498539
 Excitation Energies [eV] at current iteration:
 Root      1 :     7.749435895993505   Change is   -0.355785694706184
 Root      2 :     9.165581615689824   Change is   -0.128394385479509
 Root      3 :     9.238006914388116   Change is   -0.627910708742603
 Root      4 :     9.734082783817405   Change is   -0.614010789488093
 Root      5 :     9.920486531624835   Change is   -0.345894787765417
 Root      6 :    10.644502165500908   Change is   -0.097910729120492
 Root      7 :    10.954838436917038   Change is   -0.172911467164590
 Root      8 :    11.020827095620692   Change is   -0.244125699409806
 Root      9 :    11.281770570060216   Change is   -0.647240801243180
 Root     10 :    11.799899211382757   Change is   -0.038010676590076
 Root     11 :    12.008609324992712   Change is   -0.440612231141195
 Root     12 :    12.206950148363767   Change is   -0.274662556466001
 Root     13 :    12.244517858973641   Change is   -0.137372376701210
 Root     14 :    12.598080773908036   Change is   -0.433472146868696
 Root     15 :    12.637396335626935   Change is   -0.229452534415659
 Root     16 :    12.928736886413105   Change is   -0.162313890750518
 Root     17 :    13.188273066297832   Change is   -0.137078219648506
 Root     18 :    13.514993604525944   Change is   -0.284184728415406
 Root     19 :    13.855493746054272   Change is   -0.174747029320157
 Root     20 :    13.897978418367554   Change is   -0.066131556402072
 Root     21 :    14.026359493802433   Change is   -0.123342678239635
 Root     22 :    14.059575997205812   Change is   -0.022551805254687
 Root     23 :    14.415898020059947   Change is   -0.168065624587372
 Root     24 :    14.710319342829472   Change is   -3.744286209245351
 Iteration     3 Dimension    54 NMult    48 NNew      6
 CISAX will form     6 AO SS matrices at one time.
 NMat=     6 NSing=     3 JSym2X= 2.
 Root      1 not converged, maximum delta is    0.012034262889693
 Excitation Energies [eV] at current iteration:
 Root      1 :     7.735631203140970   Change is   -0.013804692852535
 Root      2 :     9.031534727695583   Change is   -0.206472186692534
 Root      3 :     9.162597277426825   Change is   -0.002984338262999
 Root      4 :     9.689361036299486   Change is   -0.044721747517918
 Root      5 :    10.641632244561585   Change is   -0.002869920939323
 Root      6 :    10.945888966392486   Change is   -0.008949470524552
 Iteration     4 Dimension    60 NMult    54 NNew      6
 CISAX will form     6 AO SS matrices at one time.
 NMat=     6 NSing=     3 JSym2X= 2.
 Root      1 has converged.
 Excitation Energies [eV] at current iteration:
 Root      1 :     7.735461929248446   Change is   -0.000169273892524
 Root      2 :     8.996547055649204   Change is   -0.034987672046378
 Root      3 :     9.162552169666709   Change is   -0.000045107760115
 Root      4 :     9.686963964997810   Change is   -0.002397071301676
 Root      5 :    10.641302448361335   Change is   -0.000329796200251
 Root      6 :    10.943529169852530   Change is   -0.002359796539955
 Convergence achieved on expansion vectors.
 1PDM for each excited state written to RWF  633
 Ground to excited state transition densities written to RWF  633

 ***********************************************************************
 Stability analysis using <AA,BB:AA,BB> singles matrix:
 ***********************************************************************

 Eigenvectors of the stability matrix:
 
 Eigenvector   1:      Triplet-B1   Eigenvalue= 0.2842730  <S**2>=2.000
       5 ->  6         0.48111
       5 ->  8        -0.29019
       5 -> 10        -0.33239
       5 -> 18         0.23172
 The wavefunction is stable under the perturbations considered.
 Leave Link  914 at Sat Aug  2 15:35:20 2025, MaxMem= 12348030976 cpu:               9.9 elap:               0.3
 (Enter /home/hhratchian/gaussian/gdv-20250101-j30+/gdv/l508.exe)
 The wavefunction is already stable.
 Leave Link  508 at Sat Aug  2 15:35:20 2025, MaxMem= 12348030976 cpu:               1.2 elap:               0.0
 (Enter /home/hhratchian/gaussian/gdv-20250101-j30+/gdv/l601.exe)
 Copying SCF densities to generalized density rwf, IOpCl= 0 IROHF=0.
 
 **********************************************************************
 
               Population analysis using the SCF Density.
 
 **********************************************************************
 
 Orbital symmetries:
       Occupied  (A1) (A1) (B2) (A1) (B1)
       Virtual   (A1) (B2) (A1) (B1) (A1) (B2) (B2) (A1) (A2) (B1)
                 (A1) (B2) (A1) (B2) (B2) (A1) (A1) (A2) (B1) (A1)
                 (B1) (A1) (B2) (A2) (B1) (B2) (A1) (A1) (B2) (B1)
                 (B2) (A2) (A1) (B2) (A2) (A1) (B1) (A1) (B2) (B2)
                 (A1) (B1) (A1) (A2) (B1) (A1) (B2) (A1) (B2) (B1)
                 (A1) (A2) (B2) (B2) (A1) (A2) (B1) (B2) (A1) (B1)
                 (A2) (A1) (B1) (B2) (A1) (B2) (B2) (A2) (B2) (A1)
                 (B1) (A1) (A1) (B2) (B1) (A1) (B1) (A1) (A2) (B1)
                 (A2) (B2) (A1) (B2) (A1) (B2) (A1)
 The electronic state is 1-A1.
 Alpha  occ. eigenvalues --      -20.55522      -1.37268      -0.76083      -0.57747      -0.51227
 Alpha virt. eigenvalues --        0.03046       0.04738       0.13695       0.15449       0.17468
 Alpha virt. eigenvalues --        0.18078       0.23384       0.24598       0.26300       0.31192
 Alpha virt. eigenvalues --        0.31852       0.36580       0.44815       0.47286       0.60934
 Alpha virt. eigenvalues --        0.65463       0.71416       0.71643       0.72803       0.84045
 Alpha virt. eigenvalues --        0.84825       0.88211       0.92030       0.92395       0.92422
 Alpha virt. eigenvalues --        0.92792       0.98550       1.04572       1.06431       1.09263
 Alpha virt. eigenvalues --        1.13137       1.17998       1.19006       1.24808       1.53121
 Alpha virt. eigenvalues --        1.57167       1.63801       1.77571       1.78350       2.08273
 Alpha virt. eigenvalues --        2.15228       2.26033       2.31293       2.33504       2.40977
 Alpha virt. eigenvalues --        2.42044       2.42517       2.46971       2.67373       2.69375
 Alpha virt. eigenvalues --        2.83032       2.90558       2.90845       3.71562       3.84661
 Alpha virt. eigenvalues --        4.03984       4.14944       4.27335       4.29453       4.39273
 Alpha virt. eigenvalues --        4.40572       4.43973       4.46485       4.48767       4.74492
 Alpha virt. eigenvalues --        4.84798       5.26389       5.31290       5.46995       5.51962
 Alpha virt. eigenvalues --        5.63342       5.84094       6.20117       6.53251       6.71920
 Alpha virt. eigenvalues --        6.88708       7.13889       7.26400       7.31032       7.37948
 Alpha virt. eigenvalues --        7.46758       7.60503       7.74878       8.03744       8.15150
 Alpha virt. eigenvalues --        8.97279      17.48091
          Condensed to atoms (all electrons):
               1          2          3
     1  O    7.760092   0.295479   0.295479
     2  H    0.295479   0.540428  -0.011433
     3  H    0.295479  -0.011433   0.540428
 Mulliken charges:
               1
     1  O   -0.351051
     2  H    0.175525
     3  H    0.175525
 Sum of Mulliken charges=  -0.00000
 Mulliken charges with hydrogens summed into heavy atoms:
               1
     1  O   -0.000000
 Electronic spatial extent (au):  <R**2>=             18.8916
 Charge=             -0.0000 electrons
 Dipole moment (field-independent basis, Debye):
    X=             -0.0000    Y=              0.0000    Z=             -1.8055  Tot=              1.8055
 Quadrupole moment (field-independent basis, Debye-Ang):
   XX=             -7.4618   YY=             -4.0215   ZZ=             -6.4440
   XY=              0.0000   XZ=              0.0000   YZ=              0.0000
 Traceless Quadrupole moment (field-independent basis, Debye-Ang):
   XX=             -1.4861   YY=              1.9543   ZZ=             -0.4682
   XY=              0.0000   XZ=              0.0000   YZ=              0.0000
 Octapole moment (field-independent basis, Debye-Ang**2):
  XXX=              0.0000  YYY=              0.0000  ZZZ=             -1.0312  XYY=             -0.0000
  XXY=              0.0000  XXZ=             -0.2629  XZZ=              0.0000  YZZ=              0.0000
  YYZ=             -1.2686  XYZ=             -0.0000
 Hexadecapole moment (field-independent basis, Debye-Ang**3):
 XXXX=             -6.6147 YYYY=             -5.4090 ZZZZ=             -6.8852 XXXY=             -0.0000
 XXXZ=             -0.0000 YYYX=             -0.0000 YYYZ=             -0.0000 ZZZX=             -0.0000
 ZZZY=             -0.0000 XXYY=             -2.3503 XXZZ=             -2.2770 YYZZ=             -1.8764
 XXYZ=              0.0000 YYXZ=              0.0000 ZZXY=             -0.0000
 N-N=           9.643579 E-N=        -199.991353  KE=          76.144404
 Symmetry A1   KE=          68.007903
 Symmetry A2   KE=           0.000000
 Symmetry B1   KE=           4.453992
 Symmetry B2   KE=           3.682509
 No NMR shielding tensors so no spin-rotation constants.
 Leave Link  601 at Sat Aug  2 15:35:21 2025, MaxMem= 12348030976 cpu:               7.4 elap:               0.2
 (Enter /home/hhratchian/gaussian/gdv-20250101-j30+/gdv/local/l9999.exe)
 Unable to Open any file for archive entry.
 1\1\GINC-HMNODE006\Stability\RHF\GenECP\H2O1\AABOUTAKA\02-Aug-2025\0\\
 #P HF/genecp SCF=(fermi,novaracc) Guess=Mix Stable=Opt\\Initial Stabil
 ity Check for H2O\\0,1\O,0,0.,0.,0.\H,0,0.758602,0.,0.504284\H,0,-0.75
 8602,0.,0.504284\\Version=ES64L-GDVRevJ.30+\State=1-A1\HF=-76.0583585\
 RMSD=3.108e-09\Dipole=0.,0.,0.7103413\Quadrupole=1.4529675,-1.1048485,
 -0.348119,0.,0.,0.\PG=C02V [C2(O1),SGV(H2)]\\@
 The archive entry for this job was punched.


 WHEN IT COMES TO CASH FLOW, IT SEEMS LIKE THE TIDE IS ALWAYS GOING OUT.
 Job cpu time:       0 days  0 hours  0 minutes 53.3 seconds.
 Elapsed time:       0 days  0 hours  0 minutes  1.7 seconds.
 File lengths (MBytes):  RWF=     87 Int=      0 D2E=      0 Chk=      3 Scr=      2
 Normal termination of Gaussian DV at Sat Aug  2 15:35:21 2025.
 Initial command:
 /home/hhratchian/gaussian/gdv-20250101-j30+/gdv/local/l1.exe "/scratch/aaboutaka/1562804/Gau-84414.inp" -scrdir="/scratch/aaboutaka/1562804/"
 Default is to use a total of  56 processors:
                               56 via shared-memory
                                1 via Linda
 Entering Link 1 = /home/hhratchian/gaussian/gdv-20250101-j30+/gdv/local/l1.exe PID=     85186.
  
 Copyright (c) 1988-2024, Gaussian, Inc.  All Rights Reserved.
  
 This is the private, development version of
 the Gaussian(R) DV system of programs. It is based on
 the Gaussian(R) 16 system (copyright 2016, Gaussian, Inc.),
 the Gaussian(R) 09 system (copyright 2009, Gaussian, Inc.),
 the Gaussian(R) 03 system (copyright 2003, Gaussian, Inc.),
 the Gaussian(R) 98 system (copyright 1998, Gaussian, Inc.),
 the Gaussian(R) 94 system (copyright 1995, Gaussian, Inc.),
 the Gaussian 92(TM) system (copyright 1992, Gaussian, Inc.),
 the Gaussian 90(TM) system (copyright 1990, Gaussian, Inc.),
 the Gaussian 88(TM) system (copyright 1988, Gaussian, Inc.),
 the Gaussian 86(TM) system (copyright 1986, Carnegie Mellon
 University), and the Gaussian 82(TM) system (copyright 1983,
 Carnegie Mellon University). Gaussian is a federally registered
 trademark of Gaussian, Inc.
  
 This software contains proprietary and confidential information,
 including trade secrets, belonging to Gaussian, Inc.
  
 This software is provided under written license and may be
 used, copied, transmitted, or stored only in accord with that
 written license.
  
 The following legend is applicable only to US Government
 contracts under FAR:
  
                    RESTRICTED RIGHTS LEGEND
  
 Use, reproduction and disclosure by the US Government is
 subject to restrictions as set forth in subparagraphs (a)
 and (c) of the Commercial Computer Software - Restricted
 Rights clause in FAR 52.227-19.
  
 Gaussian, Inc.
 340 Quinnipiac St., Bldg. 40, Wallingford CT 06492
  
  
 ---------------------------------------------------------------
 Warning -- This program may not be used in any manner that
 competes with the business of Gaussian, Inc. or will provide
 assistance to any competitor of Gaussian, Inc.  The licensee
 of this program is prohibited from giving any competitor of
 Gaussian, Inc. access to this program.  By using this program,
 the user acknowledges that Gaussian, Inc. is engaged in the
 business of creating and licensing software in the field of
 computational chemistry and represents and warrants to the
 licensee that it is not a competitor of Gaussian, Inc. and that
 it will not use this program in any manner prohibited above.
 ---------------------------------------------------------------
  

 Cite this work as:
 Gaussian Development Version, Revision J.30+,
 M. J. Frisch, G. W. Trucks, G. Scalmani, J. R. Cheeseman, X. Li, 
 J. Bloino, B. G. Janesko, A. V. Marenich, J. Zheng, F. Lipparini, 
 A. Jenkins, A. Liu, H. Liu, H. B. Schlegel, G. E. Scuseria, 
 M. A. Robb, V. Barone, G. A. Petersson, H. Nakatsuji, B. Mennucci, 
 C. Adamo, N. Rega, M. Caricato, H. P. Hratchian, J. V. Ortiz, 
 F. Pawlowski, A. F. Izmaylov, H. Hu, C. Liao, J. L. Sonnenberg, 
 D. Williams-Young, F. Ding, R. Gomperts, F. Egidi, J. Goings, 
 B. Peng, A. Petrone, T. Henderson, D. Ranasinghe, V. G. Zakrzewski, 
 J. Gao, G. Zheng, W. Liang, M. Hada, M. Ehara, K. Toyota, R. Fukuda, 
 J. Hasegawa, M. Ishida, T. Nakajima, Y. Honda, O. Kitao, H. Nakai, 
 T. Vreven, K. Throssell, J. A. Montgomery, Jr., J. E. Peralta, 
 F. Ogliaro, M. J. Bearpark, J. J. Heyd, E. N. Brothers, K. N. Kudin, 
 V. N. Staroverov, T. A. Keith, R. Kobayashi, J. Normand, 
 K. Raghavachari, A. P. Rendell, J. C. Burant, S. S. Iyengar, 
 M. Cossi, J. M. Millam, M. Klene, R. Cammi, R. L. Martin, O. Farkas, 
 J. B. Foresman, and D. J. Fox, Gaussian, Inc., Wallingford CT, 2024.
 
 *******************************************
 Gaussian DV:  ES64L-GDVRevJ.30+ 18-Dec-2024
                  2-Aug-2025 
 *******************************************
 %Chk=H2O_HF_genecp.chk
 ----------------------------------------------------------------------
 #P HF chkbasis Geom=AllCheck Guess=Read Opt Freq SCF=(fermi, novaracc)
  int=superfinegrid
 ----------------------------------------------------------------------
 1/18=20,19=15,29=7,38=1/1,3;
 2/9=110,12=2/2;
 3/5=7,6=2,11=9,14=-4,25=1,30=1,67=1,71=1,75=-7,116=-2/1,2,3;
 4/5=1/1;
 5/5=2,22=13,38=6/2;
 6/7=2,8=2,9=2,10=2,28=1/1;
 7//1,2,3,16;
 1/18=20,19=15/3(2);
 2/9=110/2;
 99//99;
 2/9=110/2;
 3/5=7,6=1,11=9,14=-2,25=1,30=1,71=1,75=-7,82=7,187=7/1,2,3;
 4/5=5,16=3,69=1/1;
 5/5=2,22=13,38=1/2;
 7//1,2,3,16;
 1/18=20,19=15/3(-5);
 2/9=110/2;
 6/7=2,8=2,9=2,10=2,19=2,28=1/1;
 99/9=1/99;
 Leave Link    1 at Sat Aug  2 15:35:21 2025, MaxMem=           0 cpu:               2.4 elap:               0.1
 (Enter /home/hhratchian/gaussian/gdv-20250101-j30+/gdv/local/l101.exe)
 
  Hrant - IAPOps =                         0
  Hrant - IAPOp1 =                         0
  Hrant - IAPOp2 =                         0
  Hrant - DoAP   =   F
 
 Structure from the checkpoint file:  "H2O_HF_genecp.chk"
 -------------------------------
 Initial Stability Check for H2O
 -------------------------------
 Charge =     0 Multiplicity =     1
 Z-Matrix found in chk file.
 O,0,0.,0.,0.
 H,0,0.758602,0.,0.504284
 H,0,-0.758602,0.,0.504284
 
 Recover connectivity data from disk.
 Initializing the GIC definitions file.
 ITRead=  0  0  0
 MicOpt= -1 -1 -1
 NAtoms=      3 NQM=        3 NQMF=       0 NMMI=      0 NMMIF=      0
                NMic=       0 NMicF=      0.
                    Isotopes and Nuclear Properties:
 (Nuclear quadrupole moments (NQMom) in fm**2, nuclear magnetic moments (NMagM)
  in nuclear magnetons)

  Atom         1           2           3
 IAtWgt=          16           1           1
 AtmWgt=  15.9949146   1.0078250   1.0078250
 NucSpn=           0           1           1
 AtZEff=    5.600000    1.000000    1.000000
 NQMom=    0.0000000   0.0000000   0.0000000
 NMagM=    0.0000000   2.7928460   2.7928460
 AtZNuc=   8.0000000   1.0000000   1.0000000
 Leave Link  101 at Sat Aug  2 15:35:24 2025, MaxMem= 12348030976 cpu:               3.7 elap:               3.3
 (Enter /home/hhratchian/gaussian/gdv-20250101-j30+/gdv/l103.exe)

 GradGradGradGradGradGradGradGradGradGradGradGradGradGradGradGradGradGrad
 Berny optimization.
 Initialization pass.
                           ----------------------------
                           !    Initial Parameters    !
                           ! (Angstroms and Degrees)  !
 --------------------------                            --------------------------
 ! Name  Definition              Value          Derivative Info.                !
 --------------------------------------------------------------------------------
 ! R1    R(1,2)                  0.9109         estimate D2E/DX2                !
 ! R2    R(1,3)                  0.9109         estimate D2E/DX2                !
 ! A1    A(2,1,3)              112.7717         estimate D2E/DX2                !
 --------------------------------------------------------------------------------
 Trust Radius=3.00D-01 FncErr=1.00D-07 GrdErr=1.00D-07 EigMax=2.50D+02 EigMin=1.00D-04
 Number of steps in this run=     20 maximum allowed number of steps=    100.
 GradGradGradGradGradGradGradGradGradGradGradGradGradGradGradGradGradGrad

 Leave Link  103 at Sat Aug  2 15:35:24 2025, MaxMem= 12348030976 cpu:               0.1 elap:               0.0
 (Enter /home/hhratchian/gaussian/gdv-20250101-j30+/gdv/l202.exe)
                          Input orientation:                          
 ---------------------------------------------------------------------
 Center     Atomic      Atomic             Coordinates (Angstroms)
 Number     Number       Type             X           Y           Z
 ---------------------------------------------------------------------
      1          8           0       -0.000000   -0.000000    0.000000
      2          1           0        0.758602    0.000000    0.504284
      3          1           0       -0.758602   -0.000000    0.504284
 ---------------------------------------------------------------------
                    Distance matrix (angstroms):
                    1          2          3
     1  O    0.000000
     2  H    0.910922   0.000000
     3  H    0.910922   1.517204   0.000000
 Stoichiometry    H2O
 Framework group  C2V[C2(O),SGV(H2)]
 Deg. of freedom     2
 Full point group                 C2V     NOp   4
 RotChk:  IX=0 Diff= 6.38D-16
 Largest Abelian subgroup         C2V     NOp   4
 Largest concise Abelian subgroup C2      NOp   2
                         Standard orientation:                         
 ---------------------------------------------------------------------
 Center     Atomic      Atomic             Coordinates (Angstroms)
 Number     Number       Type             X           Y           Z
 ---------------------------------------------------------------------
      1          8           0       -0.000000   -0.000000    0.100857
      2          1           0       -0.000000    0.758602   -0.403427
      3          1           0       -0.000000   -0.758602   -0.403427
 ---------------------------------------------------------------------
 Rotational constants (GHZ):        1110.1894251         435.6864908         312.8935057
 Leave Link  202 at Sat Aug  2 15:35:24 2025, MaxMem= 12348030976 cpu:               1.5 elap:               0.1
 (Enter /home/hhratchian/gaussian/gdv-20250101-j30+/gdv/local/l301.exe)
 Basis read from chk: "H2O_HF_genecp.chk" (5D, 7F)
 Pseudo-potential data read from chk file.
 There are    42 symmetry adapted cartesian basis functions of A1  symmetry.
 There are    12 symmetry adapted cartesian basis functions of A2  symmetry.
 There are    20 symmetry adapted cartesian basis functions of B1  symmetry.
 There are    31 symmetry adapted cartesian basis functions of B2  symmetry.
 There are    35 symmetry adapted basis functions of A1  symmetry.
 There are    12 symmetry adapted basis functions of A2  symmetry.
 There are    18 symmetry adapted basis functions of B1  symmetry.
 There are    27 symmetry adapted basis functions of B2  symmetry.
    92 basis functions,   126 primitive gaussians,   105 cartesian basis functions
     5 alpha electrons        5 beta electrons
       nuclear repulsion energy         9.6435792538 Hartrees.
 IExCor=         0 DFT=F Ex=HF Corr=None N6=None ScaHFX=  1.000000
 ScaDFX=  1.000000  1.000000  1.000000  1.000000  1.000000  0.000000
 ScaDFX=  0.000000  0.000000  0.000000  0.000000  0.000000  0.000000
 Grid=SuperFine IRanWt=     -1 IRanGd=            0 ICorTp=0 IEDCtl=  2004
 NAtoms=    3 NActive=    3 NUniq=    2 SFac= 2.25D+00 NAtFMM=   60 NAOKFM=F Big=F
 Integral buffers will be    131072 words long.
 Raffenetti 1 integral format.
 Two-electron integral symmetry is turned on.
 No density basis found on file 200724.
 Leave Link  301 at Sat Aug  2 15:35:24 2025, MaxMem= 12348030976 cpu:               0.1 elap:               0.0
 (Enter /home/hhratchian/gaussian/gdv-20250101-j30+/gdv/l302.exe)
 NPDir=0 NMtPBC=     1 NCelOv=     1 NCel=       1 NClECP=     1 NCelD=      1
         NCelK=      1 NCelE2=     1 NClLst=     1 CellRange=     0.0.
 One-electron integrals computed using PRISM.
 One-electron integral symmetry used in STVInt
   4 Symmetry operations used in ECPInt.
 ECPInt:  NShTT=     528 NPrTT=    1270 LenC2=     529 LenP2D=    1253.
 LDataN:  DoStor=T MaxTD1= 6 Len=  172
 NBasis=    92 RedAO= T EigKep=  3.31D-04  NBF=    35    12    18    27
 NBsUse=    92 1.00D-06 EigRej= -1.00D+00 NBFU=    35    12    18    27
 Leave Link  302 at Sat Aug  2 15:35:24 2025, MaxMem= 12348030976 cpu:               6.3 elap:               0.2
 (Enter /home/hhratchian/gaussian/gdv-20250101-j30+/gdv/l303.exe)
 DipDrv:  MaxL=1.
 Leave Link  303 at Sat Aug  2 15:35:24 2025, MaxMem= 12348030976 cpu:               1.4 elap:               0.1
 (Enter /home/hhratchian/gaussian/gdv-20250101-j30+/gdv/l401.exe)
 Initial guess from the checkpoint file:  "H2O_HF_genecp.chk"
 B after Tr=    -0.000000    0.000000    0.000000
         Rot=    1.000000    0.000000    0.000000   -0.000000 Ang=   0.00 deg.
 AO Guess basis will be translated and rotated to current coordinates.
 JPrj=2 DoOrth=T DoCkMO=T.
 Initial guess orbital symmetries:
       Occupied  (A1) (A1) (B2) (A1) (B1)
       Virtual   (A1) (B2) (A1) (B1) (A1) (B2) (B2) (A1) (A2) (B1)
                 (A1) (B2) (A1) (B2) (B2) (A1) (A1) (A2) (B1) (A1)
                 (B1) (A1) (B2) (A2) (B1) (B2) (A1) (A1) (B2) (B1)
                 (B2) (A2) (A1) (B2) (A2) (A1) (B1) (A1) (B2) (B2)
                 (A1) (B1) (A1) (A2) (B1) (A1) (B2) (A1) (B2) (B1)
                 (A1) (A2) (B2) (B2) (A1) (A2) (B1) (B2) (A1) (B1)
                 (A2) (A1) (B1) (B2) (A1) (B2) (B2) (A2) (B2) (A1)
                 (B1) (A1) (A1) (B2) (B1) (A1) (B1) (A1) (A2) (B1)
                 (A2) (B2) (A1) (B2) (A1) (B2) (A1)
 The electronic state of the initial guess is 1-A1.
 Leave Link  401 at Sat Aug  2 15:35:25 2025, MaxMem= 12348030976 cpu:               3.2 elap:               0.1
 (Enter /home/hhratchian/gaussian/gdv-20250101-j30+/gdv/local/l502.exe)
 Keep R1 ints in memory in symmetry-blocked form, NReq=36437402.
 FoFCou: FMM=F IPFlag=           0 FMFlag=           0 FMFlg1=           0
         NFxFlg=           0 DoJE=F BraDBF=F KetDBF=F FulRan=T
         wScrn=  0.000000 ICntrl=       600 IOpCl=  0 I1Cent=           0 NGrid=           0
         NMat0=    1 NMatS0=   4278 NMatT0=    0 NMatD0=    1 NMtDS0=    0 NMtDT0=    0
 Petite list used in FoFCou.
 Closed shell SCF:
 Using DIIS extrapolation, IDIIS=    10.
 NGot= 12348030976 LenX= 12345655041 LenY= 12345643575
 Requested convergence on RMS density matrix=1.00D-08 within 128 cycles.
 Requested convergence on MAX density matrix=1.00D-06.
 Requested convergence on             energy=1.00D-06.
 Level shift goal  0.100 maximum shift  0.100.
 No special actions if energy rises.
 Dynamic level shift is on during FON iterations.
 
  Hrant - CycOpn.
 

 Cycle   1  Pass 1  IDiag  1:
 E= -76.0583584729179    
 DIIS: error= 4.62D-09 at cycle   1 NSaved=   1.
 NSaved= 1 IEnMin= 1 EnMin= -76.0583584729179     IErMin= 1 ErrMin= 4.62D-09
 ErrMax= 4.62D-09  0.00D+00 EMaxC= 1.00D+00 BMatC= 3.65D-16 BMatP= 3.65D-16
 Rises=F IDIUse=1 WtCom= 1.00D+00 WtEn= 0.00D+00
 Coeff-Com:  0.100D+01
 Coeff:      0.100D+01
 Gap=     0.543 Goal=     0.100 Shift=    0.000
 RMSDP=3.55D-10 MaxDP=1.19D-08              OVMax= 2.05D-08

 SCF Done:  E(RHF) =  -76.0583584729     A.U. after    1 cycles
            NFock=  1  Conv=0.36D-09     -V/T= 1.9989
 KE=          76.144404 PE=        -199.991353 EE=          38.145012
 Leave Link  502 at Sat Aug  2 15:35:25 2025, MaxMem= 12348030976 cpu:               8.3 elap:               0.2
 (Enter /home/hhratchian/gaussian/gdv-20250101-j30+/gdv/l601.exe)
 Copying SCF densities to generalized density rwf, IOpCl= 0 IROHF=0.
 
 **********************************************************************
 
               Population analysis using the SCF Density.
 
 **********************************************************************
 
 Orbital symmetries:
       Occupied  (A1) (A1) (B2) (A1) (B1)
       Virtual   (A1) (B2) (A1) (B1) (A1) (B2) (B2) (A1) (A2) (B1)
                 (A1) (B2) (A1) (B2) (B2) (A1) (A1) (A2) (B1) (A1)
                 (B1) (A1) (B2) (A2) (B1) (B2) (A1) (A1) (B2) (B1)
                 (B2) (A2) (A1) (B2) (A2) (A1) (B1) (A1) (B2) (B2)
                 (A1) (B1) (A1) (A2) (B1) (A1) (B2) (A1) (B2) (B1)
                 (A1) (A2) (B2) (B2) (A1) (A2) (B1) (B2) (A1) (B1)
                 (A2) (A1) (B1) (B2) (A1) (B2) (B2) (A2) (B2) (A1)
                 (B1) (A1) (A1) (B2) (B1) (A1) (B1) (A1) (A2) (B1)
                 (A2) (B2) (A1) (B2) (A1) (B2) (A1)
 The electronic state is 1-A1.
 Alpha  occ. eigenvalues --      -20.55522      -1.37268      -0.76083      -0.57747      -0.51227
 Alpha virt. eigenvalues --        0.03046       0.04738       0.13695       0.15449       0.17468
 Alpha virt. eigenvalues --        0.18078       0.23384       0.24598       0.26300       0.31192
 Alpha virt. eigenvalues --        0.31852       0.36580       0.44815       0.47286       0.60934
 Alpha virt. eigenvalues --        0.65463       0.71416       0.71643       0.72803       0.84045
 Alpha virt. eigenvalues --        0.84825       0.88211       0.92030       0.92395       0.92422
 Alpha virt. eigenvalues --        0.92792       0.98550       1.04572       1.06431       1.09263
 Alpha virt. eigenvalues --        1.13137       1.17998       1.19006       1.24808       1.53121
 Alpha virt. eigenvalues --        1.57167       1.63801       1.77571       1.78350       2.08273
 Alpha virt. eigenvalues --        2.15228       2.26033       2.31293       2.33504       2.40977
 Alpha virt. eigenvalues --        2.42044       2.42517       2.46971       2.67373       2.69375
 Alpha virt. eigenvalues --        2.83032       2.90558       2.90845       3.71562       3.84661
 Alpha virt. eigenvalues --        4.03984       4.14944       4.27335       4.29453       4.39273
 Alpha virt. eigenvalues --        4.40572       4.43973       4.46485       4.48767       4.74492
 Alpha virt. eigenvalues --        4.84798       5.26389       5.31290       5.46995       5.51962
 Alpha virt. eigenvalues --        5.63342       5.84094       6.20117       6.53251       6.71920
 Alpha virt. eigenvalues --        6.88708       7.13889       7.26400       7.31032       7.37948
 Alpha virt. eigenvalues --        7.46758       7.60503       7.74878       8.03744       8.15150
 Alpha virt. eigenvalues --        8.97279      17.48091
          Condensed to atoms (all electrons):
               1          2          3
     1  O    7.760092   0.295479   0.295479
     2  H    0.295479   0.540428  -0.011433
     3  H    0.295479  -0.011433   0.540428
 Mulliken charges:
               1
     1  O   -0.351051
     2  H    0.175525
     3  H    0.175525
 Sum of Mulliken charges=   0.00000
 Mulliken charges with hydrogens summed into heavy atoms:
               1
     1  O    0.000000
 Electronic spatial extent (au):  <R**2>=             18.8916
 Charge=             -0.0000 electrons
 Dipole moment (field-independent basis, Debye):
    X=             -0.0000    Y=              0.0000    Z=             -1.8055  Tot=              1.8055
 Quadrupole moment (field-independent basis, Debye-Ang):
   XX=             -7.4618   YY=             -4.0215   ZZ=             -6.4440
   XY=              0.0000   XZ=              0.0000   YZ=             -0.0000
 Traceless Quadrupole moment (field-independent basis, Debye-Ang):
   XX=             -1.4861   YY=              1.9543   ZZ=             -0.4682
   XY=              0.0000   XZ=              0.0000   YZ=             -0.0000
 Octapole moment (field-independent basis, Debye-Ang**2):
  XXX=              0.0000  YYY=              0.0000  ZZZ=             -1.0312  XYY=             -0.0000
  XXY=             -0.0000  XXZ=             -0.2629  XZZ=              0.0000  YZZ=              0.0000
  YYZ=             -1.2686  XYZ=             -0.0000
 Hexadecapole moment (field-independent basis, Debye-Ang**3):
 XXXX=             -6.6147 YYYY=             -5.4090 ZZZZ=             -6.8852 XXXY=             -0.0000
 XXXZ=             -0.0000 YYYX=             -0.0000 YYYZ=             -0.0000 ZZZX=             -0.0000
 ZZZY=             -0.0000 XXYY=             -2.3503 XXZZ=             -2.2770 YYZZ=             -1.8764
 XXYZ=              0.0000 YYXZ=              0.0000 ZZXY=             -0.0000
 N-N=           9.643579 E-N=        -199.991353  KE=          76.144404
 Symmetry A1   KE=          68.007903
 Symmetry A2   KE=           0.000000
 Symmetry B1   KE=           4.453992
 Symmetry B2   KE=           3.682509
 No NMR shielding tensors so no spin-rotation constants.
 Leave Link  601 at Sat Aug  2 15:35:25 2025, MaxMem= 12348030976 cpu:               7.2 elap:               0.2
 (Enter /home/hhratchian/gaussian/gdv-20250101-j30+/gdv/l701.exe)
 ... and contract with generalized density number  0.
 Compute integral first derivatives.
   4 Symmetry operations used in ECPInt.
 ECPInt:  NShTT=     528 NPrTT=    1270 LenC2=     529 LenP2D=    1253.
 LDataN:  DoStor=T MaxTD1= 7 Len=  274
 Leave Link  701 at Sat Aug  2 15:35:25 2025, MaxMem= 12348030976 cpu:               7.0 elap:               0.2
 (Enter /home/hhratchian/gaussian/gdv-20250101-j30+/gdv/l702.exe)
 L702 exits ... SP integral derivatives will be done elsewhere.
 Leave Link  702 at Sat Aug  2 15:35:25 2025, MaxMem= 12348030976 cpu:               0.1 elap:               0.0
 (Enter /home/hhratchian/gaussian/gdv-20250101-j30+/gdv/l703.exe)
 Integral derivatives from FoFJK, PRISM(SPDF).
 Compute integral first derivatives, UseDBF=F ICtDFT=           0.
 Calling FoFJK, ICntrl=      2127 FMM=F ISym2X=1 I1Cent= 0 IOpClX= 0 NMat=1 NMatS=1 NMatT=0.
 FoFJK:  IHMeth= 1 ICntrl=    2127 DoSepK=F KAlg= 0 I1Cent=           0 FoldK=F
 IRaf=         0 NMat=       1 IRICut=       1 DoRegI=T DoRafI=F ISym2E= 1 IDoP0=0 IntGTp=1.
 FoFCou: FMM=F IPFlag=           0 FMFlag=      100000 FMFlg1=         800
         NFxFlg=           0 DoJE=F BraDBF=F KetDBF=F FulRan=T
         wScrn=  0.000000 ICntrl=      2127 IOpCl=  0 I1Cent=           0 NGrid=           0
         NMat0=    1 NMatS0=      1 NMatT0=    0 NMatD0=    1 NMtDS0=    0 NMtDT0=    0
 Petite list used in FoFCou.
 Leave Link  703 at Sat Aug  2 15:35:26 2025, MaxMem= 12348030976 cpu:              18.0 elap:               0.4
 (Enter /home/hhratchian/gaussian/gdv-20250101-j30+/gdv/l716.exe)
 Dipole        =-3.93028531D-17 0.00000000D+00-7.10341372D-01
 ***** Axes restored to original set *****
 -------------------------------------------------------------------
 Center     Atomic                   Forces (Hartrees/Bohr)
 Number     Number              X              Y              Z
 -------------------------------------------------------------------
      1        8           0.000000000   -0.000000000   -0.054508001
      2        1           0.024969636    0.000000000    0.027254001
      3        1          -0.024969636    0.000000000    0.027254001
 -------------------------------------------------------------------
 Cartesian Forces:  Max     0.054508001 RMS     0.025174168
 Leave Link  716 at Sat Aug  2 15:35:26 2025, MaxMem= 12348030976 cpu:               1.3 elap:               0.1
 (Enter /home/hhratchian/gaussian/gdv-20250101-j30+/gdv/l103.exe)

 GradGradGradGradGradGradGradGradGradGradGradGradGradGradGradGradGradGrad
 Berny optimization.
 FormGI is forming the generalized inverse of G from B-inverse, IUseBI=4.
 NTrRot=    -1 NTRed=     3 NAtoms=     3 NSkip=     0 NRank=     3 IsLin=F EigSml=8.5452D-01
 Internal  Forces:  Max     0.035882066 RMS     0.030596128
 Search for a local minimum.
 Step number   1 out of a maximum of   20
 All quantities printed in internal units (Hartrees-Bohrs-Radians)
 RMS Force = .30596D-01 SwitMx=.10000D-02 MixMth= 1
 Mixed Optimization -- RFO/linear search
 Second derivative matrix not updated -- first step.
 The second derivative matrix:
                          R1        R2        A1
           R1           0.67525
           R2           0.00000   0.67525
           A1           0.00000   0.00000   0.16000
 ITU=  0
     Eigenvalues ---    0.16000   0.67525   0.67525
 RFO step:  Lambda=-5.19674788D-03 EMin= 1.60000000D-01
 Linear search not attempted -- first point.
 GrdOpt: GIC=T ITstSp=  0 NP=   1 DidLin=F DidDIS=F IDoGRo=0 IDoRot=0
         ISwap=1 XLin= 0.000 DXMaxT= 0.300
 Iteration  1 RMS(Cart)=  0.02598363 RMS(Int)=  0.00217974
 Iteration  2 RMS(Cart)=  0.00139732 RMS(Int)=  0.00000215
 Iteration  3 RMS(Cart)=  0.00000081 RMS(Int)=  0.00000000
 ClnCor:  largest displacement from symmetrization is 1.11D-16 for atom     3.
 Variable       Old X    -DE/DX   Delta X   Delta X   Delta X     New X
                                 (Linear)    (Quad)   (Total)
    R1        1.72139   0.03588   0.00000   0.05273   0.05273   1.77413
    R2        1.72139   0.03588   0.00000   0.05273   0.05273   1.77413
    A1        1.96824  -0.01527   0.00000  -0.09247  -0.09247   1.87577
         Item               Value     Threshold  Converged?
 Maximum Force            0.035882     0.000450     NO 
 RMS     Force            0.030596     0.000300     NO 
 Maximum Displacement     0.064284     0.001800     NO 
 RMS     Displacement     0.045524     0.001200     NO 
 Predicted change in Energy=-2.635041D-03
 Lowest energy point so far.  Saving SCF results.
 GradGradGradGradGradGradGradGradGradGradGradGradGradGradGradGradGradGrad

 Leave Link  103 at Sat Aug  2 15:35:26 2025, MaxMem= 12348030976 cpu:               1.4 elap:               0.1
 (Enter /home/hhratchian/gaussian/gdv-20250101-j30+/gdv/l202.exe)
                          Input orientation:                          
 ---------------------------------------------------------------------
 Center     Atomic      Atomic             Coordinates (Angstroms)
 Number     Number       Type             X           Y           Z
 ---------------------------------------------------------------------
      1          8           0       -0.000000    0.000000   -0.034018
      2          1           0        0.756986    0.000000    0.521293
      3          1           0       -0.756986   -0.000000    0.521293
 ---------------------------------------------------------------------
                    Distance matrix (angstroms):
                    1          2          3
     1  O    0.000000
     2  H    0.938827   0.000000
     3  H    0.938827   1.513971   0.000000
 Stoichiometry    H2O
 Framework group  C2V[C2(O),SGV(H2)]
 Deg. of freedom     2
 Full point group                 C2V     NOp   4
 RotChk:  IX=0 Diff= 4.16D-16
 Largest Abelian subgroup         C2V     NOp   4
 Largest concise Abelian subgroup C2      NOp   2
                         Standard orientation:                         
 ---------------------------------------------------------------------
 Center     Atomic      Atomic             Coordinates (Angstroms)
 Number     Number       Type             X           Y           Z
 ---------------------------------------------------------------------
      1          8           0        0.000000   -0.000000    0.111062
      2          1           0       -0.000000    0.756986   -0.444248
      3          1           0       -0.000000   -0.756986   -0.444248
 ---------------------------------------------------------------------
 Rotational constants (GHZ):         915.5364879         437.5491571         296.0582873
 Leave Link  202 at Sat Aug  2 15:35:26 2025, MaxMem= 12348030976 cpu:               1.5 elap:               0.0
 (Enter /home/hhratchian/gaussian/gdv-20250101-j30+/gdv/local/l301.exe)
 Basis read from rwf:  (5D, 7F)
 Pseudo-potential data read from rwf file.
 There are    42 symmetry adapted cartesian basis functions of A1  symmetry.
 There are    12 symmetry adapted cartesian basis functions of A2  symmetry.
[...]
 Requested convergence on MAX density matrix=1.00D-06.
 Requested convergence on             energy=1.00D-06.
 Level shift goal  0.100 maximum shift  0.100.
 No special actions if energy rises.
 Dynamic level shift is on during FON iterations.
 
  Hrant - CycOpn.
 

 Cycle   1  Pass 1  IDiag  1:
 E= -76.0612030643248    
 DIIS: error= 7.37D-09 at cycle   1 NSaved=   1.
 NSaved= 1 IEnMin= 1 EnMin= -76.0612030643248     IErMin= 1 ErrMin= 7.37D-09
 ErrMax= 7.37D-09  0.00D+00 EMaxC= 1.00D+00 BMatC= 8.16D-16 BMatP= 8.16D-16
 Rises=F IDIUse=1 WtCom= 1.00D+00 WtEn= 0.00D+00
 Coeff-Com:  0.100D+01
 Coeff:      0.100D+01
 Gap=     0.541 Goal=     0.100 Shift=    0.000
 RMSDP=5.04D-10 MaxDP=1.11D-08              OVMax= 2.60D-08

 SCF Done:  E(RHF) =  -76.0612030643     A.U. after    1 cycles
            NFock=  1  Conv=0.50D-09     -V/T= 2.0005
 KE=          76.022030 PE=        -199.340921 EE=          37.908936
 Leave Link  502 at Sat Aug  2 15:35:38 2025, MaxMem= 12348030976 cpu:               9.5 elap:               0.3
 (Enter /home/hhratchian/gaussian/gdv-20250101-j30+/gdv/l601.exe)
 Copying SCF densities to generalized density rwf, IOpCl= 0 IROHF=0.
 
 **********************************************************************
 
               Population analysis using the SCF Density.
 
 **********************************************************************
 
 Orbital symmetries:
       Occupied  (A1) (A1) (B2) (A1) (B1)
       Virtual   (A1) (B2) (A1) (B1) (A1) (B2) (B2) (A1) (A2) (B1)
                 (A1) (B2) (A1) (B2) (B2) (A1) (A1) (A2) (B1) (A1)
                 (B1) (A1) (B2) (B1) (A2) (B2) (A1) (A1) (B2) (B1)
                 (B2) (A2) (A1) (B2) (A2) (A1) (B1) (A1) (B2) (B2)
                 (A1) (B1) (A1) (A2) (B1) (A1) (B2) (A1) (B2) (B1)
                 (A1) (B2) (A2) (B2) (A1) (A2) (B1) (A1) (B2) (B1)
                 (A2) (A1) (B1) (B2) (A1) (B2) (B2) (A2) (B2) (A1)
                 (B1) (A1) (A1) (B2) (B1) (A1) (B1) (B1) (A1) (A2)
                 (A2) (B2) (A1) (A1) (B2) (B2) (A1)
 The electronic state is 1-A1.
 Alpha  occ. eigenvalues --      -20.56350      -1.36084      -0.73044      -0.58450      -0.51124
 Alpha virt. eigenvalues --        0.02975       0.04764       0.13624       0.15737       0.17532
 Alpha virt. eigenvalues --        0.18247       0.22963       0.24558       0.26477       0.30334
 Alpha virt. eigenvalues --        0.31234       0.36613       0.44166       0.46961       0.60199
 Alpha virt. eigenvalues --        0.65833       0.71033       0.72076       0.73096       0.83507
 Alpha virt. eigenvalues --        0.84682       0.88773       0.91649       0.91892       0.92376
 Alpha virt. eigenvalues --        0.93093       0.96795       1.03017       1.05120       1.08610
 Alpha virt. eigenvalues --        1.11515       1.17901       1.18572       1.25361       1.51779
 Alpha virt. eigenvalues --        1.54616       1.60082       1.79246       1.81819       2.01738
 Alpha virt. eigenvalues --        2.13272       2.26335       2.32013       2.32176       2.42132
 Alpha virt. eigenvalues --        2.42203       2.43925       2.47712       2.66977       2.69466
 Alpha virt. eigenvalues --        2.78850       2.84074       2.89414       3.67885       3.78283
 Alpha virt. eigenvalues --        4.02634       4.10814       4.20302       4.26662       4.32242
 Alpha virt. eigenvalues --        4.38769       4.38896       4.42310       4.51826       4.73970
 Alpha virt. eigenvalues --        4.87927       5.16866       5.20857       5.31695       5.40490
 Alpha virt. eigenvalues --        5.57254       5.72099       6.19337       6.51834       6.71538
 Alpha virt. eigenvalues --        6.91351       7.14590       7.28097       7.31200       7.32922
 Alpha virt. eigenvalues --        7.38747       7.39042       7.60352       7.96562       7.97702
 Alpha virt. eigenvalues --        8.88425      16.36807
          Condensed to atoms (all electrons):
               1          2          3
     1  O    7.853020   0.278675   0.278675
     2  H    0.278675   0.506193   0.009948
     3  H    0.278675   0.009948   0.506193
 Mulliken charges:
               1
     1  O   -0.410369
     2  H    0.205184
     3  H    0.205184
 Sum of Mulliken charges=   0.00000
 Mulliken charges with hydrogens summed into heavy atoms:
               1
     1  O    0.000000
 Electronic spatial extent (au):  <R**2>=             19.2642
 Charge=             -0.0000 electrons
 Dipole moment (field-independent basis, Debye):
    X=             -0.0000    Y=              0.0000    Z=             -1.9394  Tot=              1.9394
 Quadrupole moment (field-independent basis, Debye-Ang):
   XX=             -7.5231   YY=             -4.2052   ZZ=             -6.2876
   XY=              0.0000   XZ=              0.0000   YZ=             -0.0000
 Traceless Quadrupole moment (field-independent basis, Debye-Ang):
   XX=             -1.5178   YY=              1.8001   ZZ=             -0.2823
   XY=              0.0000   XZ=              0.0000   YZ=             -0.0000
 Octapole moment (field-independent basis, Debye-Ang**2):
  XXX=              0.0000  YYY=              0.0000  ZZZ=             -1.1209  XYY=             -0.0000
  XXY=             -0.0000  XXZ=             -0.2601  XZZ=              0.0000  YZZ=              0.0000
  YYZ=             -1.3591  XYZ=             -0.0000
 Hexadecapole moment (field-independent basis, Debye-Ang**3):
 XXXX=             -6.6831 YYYY=             -5.7913 ZZZZ=             -7.1091 XXXY=             -0.0000
 XXXZ=             -0.0000 YYYX=             -0.0000 YYYZ=             -0.0000 ZZZX=             -0.0000
 ZZZY=              0.0000 XXYY=             -2.4050 XXZZ=             -2.3415 YYZZ=             -1.8506
 XXYZ=              0.0000 YYXZ=              0.0000 ZZXY=             -0.0000
 N-N=           9.348752 E-N=        -199.340921  KE=          76.022030
 Symmetry A1   KE=          67.942408
 Symmetry A2   KE=           0.000000
 Symmetry B1   KE=           4.462355
 Symmetry B2   KE=           3.617267
 No NMR shielding tensors so no spin-rotation constants.
 Leave Link  601 at Sat Aug  2 15:35:38 2025, MaxMem= 12348030976 cpu:               5.3 elap:               0.2
 (Enter /home/hhratchian/gaussian/gdv-20250101-j30+/gdv/l801.exe)
 Range of M.O.s used for correlation:     1    92
 NBasis=    92 NAE=     5 NBE=     5 NFC=     0 NFV=     0
 NROrb=     92 NOA=     5 NOB=     5 NVA=    87 NVB=    87

 **** Warning!!: The largest alpha MO coefficient is  0.16520619D+02

 Leave Link  801 at Sat Aug  2 15:35:38 2025, MaxMem= 12348030976 cpu:               0.1 elap:               0.0
 (Enter /home/hhratchian/gaussian/gdv-20250101-j30+/gdv/l914.exe)
 RHF ground state
 Doing stability rather than CIS.
 Keep R1 and R2 ints in memory in symmetry-blocked form, NReq=36437749.
 FoFCou: FMM=F IPFlag=           0 FMFlag=           0 FMFlg1=           0
         NFxFlg=           0 DoJE=F BraDBF=F KetDBF=F FulRan=T
         wScrn=  0.000000 ICntrl=       600 IOpCl=  0 I1Cent=           0 NGrid=           0
         NMat0=    1 NMatS0=   4278 NMatT0=    0 NMatD0=    1 NMtDS0=    0 NMtDT0=    0
 Petite list used in FoFCou.
 MDV= 12348030976 DFT=F IDoStb=1 Mixed=F DoRPA=F DoScal=F NonHer=F
 Making orbital integer symmetry assigments:
 Orbital symmetries:
       Occupied  (A1) (A1) (B2) (A1) (B1)
       Virtual   (A1) (B2) (A1) (B1) (A1) (B2) (B2) (A1) (A2) (B1)
                 (A1) (B2) (A1) (B2) (B2) (A1) (A1) (A2) (B1) (A1)
                 (B1) (A1) (B2) (B1) (A2) (B2) (A1) (A1) (B2) (B1)
                 (B2) (A2) (A1) (B2) (A2) (A1) (B1) (A1) (B2) (B2)
                 (A1) (B1) (A1) (A2) (B1) (A1) (B2) (A1) (B2) (B1)
                 (A1) (B2) (A2) (B2) (A1) (A2) (B1) (A1) (B2) (B1)
                 (A2) (A1) (B1) (B2) (A1) (B2) (B2) (A2) (B2) (A1)
                 (B1) (A1) (A1) (B2) (B1) (A1) (B1) (B1) (A1) (A2)
                 (A2) (B2) (A1) (A1) (B2) (B2) (A1)
 The electronic state is 1-A1.
    24 initial guesses have been made.
 Convergence on wavefunction:    0.001000000000000
 Davidson Disk Diagonalization:  ConvIn= 1.00D-03 SkipCon=T Conv= 1.00D-03.
 Max sub-space:  1740 initial roots:    24 roots to seek:     1 dimension of matrix:          870
 Iteration     1 Dimension    24 NMult     0 NNew     24
 CISAX will form    24 AO SS matrices at one time.
 NMat=    24 NSing=    12 JSym2X= 2.
 New state      1 was old state      2
 Excitation Energies [eV] at current iteration:
 Root      1 :     7.857767781381998
 Root      2 :     9.126296651567554
 Root      3 :     9.720455139276149
 Root      4 :    10.041374153892221
 Root      5 :    10.296580245009087
 Root      6 :    10.631970046846366
 Root      7 :    11.170929517600687
 Root      8 :    11.243147319665276
 Root      9 :    11.268297656604187
 Root     10 :    11.800236857122725
 Root     11 :    12.338702838661437
 Root     12 :    12.616461442234771
 Root     13 :    12.622980022873108
 Root     14 :    12.671156626488575
 Root     15 :    13.036409679813429
 Root     16 :    13.074899207548466
 Root     17 :    13.364135279691952
 Root     18 :    13.897532862659483
 Root     19 :    13.919917877542712
 Root     20 :    14.014596527817410
 Root     21 :    14.090350759631180
 Root     22 :    14.350284739551832
 Root     23 :    15.512743363117686
 Root     24 :    18.853985355105749
 Iteration     2 Dimension    48 NMult    24 NNew     24
 CISAX will form    24 AO SS matrices at one time.
 NMat=    24 NSing=    12 JSym2X= 2.
 Root      1 not converged, maximum delta is    0.034039082895138
 Excitation Energies [eV] at current iteration:
 Root      1 :     7.479144092651469   Change is   -0.378623688730528
 Root      2 :     8.936654895385784   Change is   -0.783800243890366
 Root      3 :     8.988817549447051   Change is   -0.137479102120503
 Root      4 :     9.598026170307588   Change is   -0.443347983584633
 Root      5 :     9.705750064109591   Change is   -0.590830180899496
 Root      6 :    10.248275905416818   Change is   -1.020021751187368
 Root      7 :    10.511844311156713   Change is   -0.120125735689653
 Root      8 :    10.990218024947326   Change is   -0.180711492653361
 Root      9 :    10.998305254569527   Change is   -0.244842065095750
 Root     10 :    11.759189377401132   Change is   -0.041047479721593
 Root     11 :    12.202651758253367   Change is   -0.136051080408070
 Root     12 :    12.236450372556632   Change is   -0.434706253931941
 Root     13 :    12.268428909829336   Change is   -0.354551113043772
 Root     14 :    12.399708873509841   Change is   -0.216752568724930
 Root     15 :    12.722606033966169   Change is   -0.641529245725783
 Root     16 :    12.877596514667189   Change is   -0.158813165146240
 Root     17 :    12.938604720884765   Change is   -0.136294486663701
 Root     18 :    13.100148912738222   Change is   -0.819768964804490
 Root     19 :    13.764786401963390   Change is   -0.325564357667791
 Root     20 :    13.831111694153819   Change is   -0.066421168505664
 Root     21 :    13.989436571047801   Change is   -0.025159956769609
 Root     22 :    14.078899210883172   Change is   -0.271385528668658
 Root     23 :    14.601984688419696   Change is   -4.252000666686052
 Root     24 :    15.013094643968234   Change is   -0.499648719149452
 Iteration     3 Dimension    54 NMult    48 NNew      6
 CISAX will form     6 AO SS matrices at one time.
 NMat=     6 NSing=     3 JSym2X= 2.
 Root      1 not converged, maximum delta is    0.011846996879716
 Excitation Energies [eV] at current iteration:
 Root      1 :     7.463720717114805   Change is   -0.015423375536664
 Root      2 :     8.641259136750028   Change is   -0.295395758635755
 Root      3 :     8.984725922101751   Change is   -0.004091627345301
 Root      4 :     9.563843095151046   Change is   -0.034183075156540
 Root      5 :    10.507330661047822   Change is   -0.004513650108889
 Root      6 :    10.985810918935373   Change is   -0.004407106011953
 Iteration     4 Dimension    60 NMult    54 NNew      6
 CISAX will form     6 AO SS matrices at one time.
 NMat=     6 NSing=     3 JSym2X= 2.
 Root      1 has converged.
 Excitation Energies [eV] at current iteration:
 Root      1 :     7.463458984802222   Change is   -0.000261732312583
 Root      2 :     8.576629079599032   Change is   -0.064630057150996
 Root      3 :     8.984642893593509   Change is   -0.000083028508241
 Root      4 :     9.562871211459690   Change is   -0.000971883691357
 Root      5 :    10.506845840678530   Change is   -0.000484820369294
 Root      6 :    10.977925917531280   Change is   -0.007885001404093
 Convergence achieved on expansion vectors.
 1PDM for each excited state written to RWF  633
 Ground to excited state transition densities written to RWF  633

 ***********************************************************************
 Stability analysis using <AA,BB:AA,BB> singles matrix:
 ***********************************************************************

 Eigenvectors of the stability matrix:
 
 Eigenvector   1:      Triplet-B1   Eigenvalue= 0.2742771  <S**2>=2.000
       5 ->  6         0.47060
       5 ->  8        -0.31103
       5 -> 10        -0.31810
       5 -> 18         0.23976
 The wavefunction is stable under the perturbations considered.
 Leave Link  914 at Sat Aug  2 15:35:38 2025, MaxMem= 12348030976 cpu:              10.5 elap:               0.3
 (Enter /home/hhratchian/gaussian/gdv-20250101-j30+/gdv/l508.exe)
 The wavefunction is already stable.
 Leave Link  508 at Sat Aug  2 15:35:38 2025, MaxMem= 12348030976 cpu:               0.1 elap:               0.0
 (Enter /home/hhratchian/gaussian/gdv-20250101-j30+/gdv/l601.exe)
 Copying SCF densities to generalized density rwf, IOpCl= 0 IROHF=0.
 
 **********************************************************************
 
               Population analysis using the SCF Density.
 
 **********************************************************************
 
 Orbital symmetries:
       Occupied  (A1) (A1) (B2) (A1) (B1)
       Virtual   (A1) (B2) (A1) (B1) (A1) (B2) (B2) (A1) (A2) (B1)
                 (A1) (B2) (A1) (B2) (B2) (A1) (A1) (A2) (B1) (A1)
                 (B1) (A1) (B2) (B1) (A2) (B2) (A1) (A1) (B2) (B1)
                 (B2) (A2) (A1) (B2) (A2) (A1) (B1) (A1) (B2) (B2)
                 (A1) (B1) (A1) (A2) (B1) (A1) (B2) (A1) (B2) (B1)
                 (A1) (B2) (A2) (B2) (A1) (A2) (B1) (A1) (B2) (B1)
                 (A2) (A1) (B1) (B2) (A1) (B2) (B2) (A2) (B2) (A1)
                 (B1) (A1) (A1) (B2) (B1) (A1) (B1) (B1) (A1) (A2)
                 (A2) (B2) (A1) (A1) (B2) (B2) (A1)
 The electronic state is 1-A1.
 Alpha  occ. eigenvalues --      -20.56350      -1.36084      -0.73044      -0.58450      -0.51124
 Alpha virt. eigenvalues --        0.02975       0.04764       0.13624       0.15737       0.17532
 Alpha virt. eigenvalues --        0.18247       0.22963       0.24558       0.26477       0.30334
 Alpha virt. eigenvalues --        0.31234       0.36613       0.44166       0.46961       0.60199
 Alpha virt. eigenvalues --        0.65833       0.71033       0.72076       0.73096       0.83507
 Alpha virt. eigenvalues --        0.84682       0.88773       0.91649       0.91892       0.92376
 Alpha virt. eigenvalues --        0.93093       0.96795       1.03017       1.05120       1.08610
 Alpha virt. eigenvalues --        1.11515       1.17901       1.18572       1.25361       1.51779
 Alpha virt. eigenvalues --        1.54616       1.60082       1.79246       1.81819       2.01738
 Alpha virt. eigenvalues --        2.13272       2.26335       2.32013       2.32176       2.42132
 Alpha virt. eigenvalues --        2.42203       2.43925       2.47712       2.66977       2.69466
 Alpha virt. eigenvalues --        2.78850       2.84074       2.89414       3.67885       3.78283
 Alpha virt. eigenvalues --        4.02634       4.10814       4.20302       4.26662       4.32242
 Alpha virt. eigenvalues --        4.38769       4.38896       4.42310       4.51826       4.73970
 Alpha virt. eigenvalues --        4.87927       5.16866       5.20857       5.31695       5.40490
 Alpha virt. eigenvalues --        5.57254       5.72099       6.19337       6.51834       6.71538
 Alpha virt. eigenvalues --        6.91351       7.14590       7.28097       7.31200       7.32922
 Alpha virt. eigenvalues --        7.38747       7.39042       7.60352       7.96562       7.97702
 Alpha virt. eigenvalues --        8.88425      16.36807
          Condensed to atoms (all electrons):
               1          2          3
     1  O    7.853020   0.278675   0.278675
     2  H    0.278675   0.506193   0.009948
     3  H    0.278675   0.009948   0.506193
 Mulliken charges:
               1
     1  O   -0.410369
     2  H    0.205184
     3  H    0.205184
 Sum of Mulliken charges=   0.00000
 Mulliken charges with hydrogens summed into heavy atoms:
               1
     1  O    0.000000
 Electronic spatial extent (au):  <R**2>=             19.2642
 Charge=             -0.0000 electrons
 Dipole moment (field-independent basis, Debye):
    X=             -0.0000    Y=              0.0000    Z=             -1.9394  Tot=              1.9394
 Quadrupole moment (field-independent basis, Debye-Ang):
   XX=             -7.5231   YY=             -4.2052   ZZ=             -6.2876
   XY=              0.0000   XZ=              0.0000   YZ=             -0.0000
 Traceless Quadrupole moment (field-independent basis, Debye-Ang):
   XX=             -1.5178   YY=              1.8001   ZZ=             -0.2823
   XY=              0.0000   XZ=              0.0000   YZ=             -0.0000
 Octapole moment (field-independent basis, Debye-Ang**2):
  XXX=              0.0000  YYY=              0.0000  ZZZ=             -1.1209  XYY=             -0.0000
  XXY=             -0.0000  XXZ=             -0.2601  XZZ=              0.0000  YZZ=              0.0000
  YYZ=             -1.3591  XYZ=             -0.0000
 Hexadecapole moment (field-independent basis, Debye-Ang**3):
 XXXX=             -6.6831 YYYY=             -5.7913 ZZZZ=             -7.1091 XXXY=             -0.0000
 XXXZ=             -0.0000 YYYX=             -0.0000 YYYZ=             -0.0000 ZZZX=             -0.0000
 ZZZY=              0.0000 XXYY=             -2.4050 XXZZ=             -2.3415 YYZZ=             -1.8506
 XXYZ=              0.0000 YYXZ=              0.0000 ZZXY=             -0.0000
 N-N=           9.348752 E-N=        -199.340921  KE=          76.022030
 Symmetry A1   KE=          67.942408
 Symmetry A2   KE=           0.000000
 Symmetry B1   KE=           4.462355
 Symmetry B2   KE=           3.617267
 No NMR shielding tensors so no spin-rotation constants.
 Leave Link  601 at Sat Aug  2 15:35:38 2025, MaxMem= 12348030976 cpu:               3.4 elap:               0.1
 (Enter /home/hhratchian/gaussian/gdv-20250101-j30+/gdv/local/l9999.exe)
 Unable to Open any file for archive entry.
 1\1\GINC-HMNODE006\Stability\RHF\Gen\H2O1\AABOUTAKA\02-Aug-2025\0\\#P 
 HF chkbasis Geom=AllCheck Guess=Read Stable=Opt SCF=(fermi,novaracc)\\
 Initial Stability Check for H2O\\0,1\O,0,0.,0.,-0.0399761838\H,0,0.753
 1002409,0.,0.5242720919\H,0,-0.7531002409,0.,0.5242720919\\Version=ES6
 4L-GDVRevJ.30+\State=1-A1\HF=-76.0612031\RMSD=5.040e-10\Dipole=0.,0.,0
 .7630137\Quadrupole=1.3382962,-1.1284313,-0.2098649,0.,0.,0.\PG=C02V [
 C2(O1),SGV(H2)]\\@
 The archive entry for this job was punched.


 IT IS WELL TO REMEMBER THAT MAN IS A PART OF NATURE AND THAT HIS WORKS,
 WHATEVER THEY MAY BE, ARE NO MORE "UNNATURAL" THAN 
 THE FLIGHT OF AN EAGLE OR THE PASSAGE OF A TORNADO.

                                    -- CHARLES MCCARRY IN "THE GREAT SOUTHWEST"
 Job cpu time:       0 days  0 hours  0 minutes 43.2 seconds.
 Elapsed time:       0 days  0 hours  0 minutes  1.7 seconds.
 File lengths (MBytes):  RWF=    100 Int=      0 D2E=      0 Chk=     67 Scr=      2
 Normal termination of Gaussian DV at Sat Aug  2 15:35:38 2025.
