 Set GAUSS_MDEF to "92GB".
 Set GAUSS_PDEF to "56".
 Entering Gaussian System, Link 0=gdv
 Initial command:
 /home/hhratchian/gaussian/gdv-20250101-j30+/gdv/local/l1.exe "/scratch/aaboutaka/1562805/Gau-90018.inp" -scrdir="/scratch/aaboutaka/1562805/"
 Default is to use a total of  56 processors:
                               56 via shared-memory
                                1 via Linda
 Entering Link 1 = /home/hhratchian/gaussian/gdv-20250101-j30+/gdv/local/l1.exe PID=     90019.
  
 Copyright (c) 1988-2024, Gaussian, Inc.  All Rights Reserved.
  
 This is the private, development version of
 the Gaussian(R) DV system of programs. It is based on
 the Gaussian(R) 16 system (copyright 2016, Gaussian, Inc.),
 the Gaussian(R) 09 system (copyright 2009, Gaussian, Inc.),
 the Gaussian(R) 03 system (copyright 2003, Gaussian, Inc.),
 the Gaussian(R) 98 system (copyright 1998, Gaussian, Inc.),
 the Gaussian(R) 94 system (copyright 1995, Gaussian, Inc.),
 the Gaussian 92(TM) system (copyright 1992, Gaussian, Inc.),
 the Gaussian 90(TM) system (copyright 1990, Gaussian, Inc.),
 the Gaussian 88(TM) system (copyright 1988, Gaussian, Inc.),
 the Gaussian 86(TM) system (copyright 1986, Carnegie Mellon
 University), and the Gaussian 82(TM) system (copyright 1983,
 Carnegie Mellon University). Gaussian is a federally registered
 trademark of Gaussian, Inc.
  
 This software contains proprietary and confidential information,
 including trade secrets, belonging to Gaussian, Inc.
  
 This software is provided under written license and may be
 used, copied, transmitted, or stored only in accord with that
 written license.
  
 The following legend is applicable only to US Government
 contracts under FAR:
  
                    RESTRICTED RIGHTS LEGEND
  
 Use, reproduction and disclosure by the US Government is
 subject to restrictions as set forth in subparagraphs (a)
 and (c) of the Commercial Computer Software - Restricted
 Rights clause in FAR 52.227-19.
  
 Gaussian, Inc.
 340 Quinnipiac St., Bldg. 40, Wallingford CT 06492
  
  
 ---------------------------------------------------------------
 Warning -- This program may not be used in any manner that
 competes with the business of Gaussian, Inc. or will provide
 assistance to any competitor of Gaussian, Inc.  The licensee
 of this program is prohibited from giving any competitor of
 Gaussian, Inc. access to this program.  By using this program,
 the user acknowledges that Gaussian, Inc. is engaged in the
 business of creating and licensing software in the field of
 computational chemistry and represents and warrants to the
 licensee that it is not a competitor of Gaussian, Inc. and that
 it will not use this program in any manner prohibited above.
 ---------------------------------------------------------------
  

 Cite this work as:
 Gaussian Development Version, Revision J.30+,
 M. J. Frisch, G. W. Trucks, G. Scalmani, J. R. Cheeseman, X. Li, 
 J. Bloino, B. G. Janesko, A. V. Marenich, J. Zheng, F. Lipparini, 
 A. Jenkins, A. Liu, H. Liu, H. B. Schlegel, G. E. Scuseria, 
 M. A. Robb, V. Barone, G. A. Petersson, H. Nakatsuji, B. Mennucci, 
 C. Adamo, N. Rega, M. Caricato, H. P. Hratchian, J. V. Ortiz, 
 F. Pawlowski, A. F. Izmaylov, H. Hu, C. Liao, J. L. Sonnenberg, 
 D. Williams-Young, F. Ding, R. Gomperts, F. Egidi, J. Goings, 
 B. Peng, A. Petrone, T. Henderson, D. Ranasinghe, V. G. Zakrzewski, 
 J. Gao, G. Zheng, W. Liang, M. Hada, M. Ehara, K. Toyota, R. Fukuda, 
 J. Hasegawa, M. Ishida, T. Nakajima, Y. Honda, O. Kitao, H. Nakai, 
 T. Vreven, K. Throssell, J. A. Montgomery, Jr., J. E. Peralta, 
 F. Ogliaro, M. J. Bearpark, J. J. Heyd, E. N. Brothers, K. N. Kudin, 
 V. N. Staroverov, T. A. Keith, R. Kobayashi, J. Normand, 
 K. Raghavachari, A. P. Rendell, J. C. Burant, S. S. Iyengar, 
 M. Cossi, J. M. Millam, M. Klene, R. Cammi, R. L. Martin, O. Farkas, 
 J. B. Foresman, and D. J. Fox, Gaussian, Inc., Wallingford CT, 2024.
 
 *******************************************
 Gaussian DV:  ES64L-GDVRevJ.30+ 18-Dec-2024
                  2-Aug-2025 
 *******************************************
 %Chk=H2O_HF_631pGdp.chk
 -----------------------------------------------------------
 #P HF/6-31+G(d,p) SCF=(fermi,novaracc) Guess=Mix Stable=Opt
 -----------------------------------------------------------
 1/37=210000000,38=1,172=1/1;
 2/12=2/2;
 3/5=1,6=6,7=1011,11=2,25=1,30=1/1,2,3;
 4/13=-1/1;
 5/5=2,22=13,38=1/2;
 6/7=2,8=2,9=2,10=2,28=1/1;
 8/6=1,10=90,11=11/1;
 9/8=-3,42=1,46=1/14;
 5/5=2,8=3,17=40,22=13,38=1/8(-2);
 6/7=2,8=2,9=2,10=2,28=1/1;
 99/5=1,9=1/99;
 Leave Link    1 at Sat Aug  2 15:35:49 2025, MaxMem=           0 cpu:               1.8 elap:               0.1
 (Enter /home/hhratchian/gaussian/gdv-20250101-j30+/gdv/local/l101.exe)
 
  Hrant - IAPOps =                         0
  Hrant - IAPOp1 =                         0
  Hrant - IAPOp2 =                         0
  Hrant - DoAP   =   F
 
 -------------------------------
 Initial Stability Check for H2O
 -------------------------------
 Symbolic Z-matrix:
 Charge =     0 Multiplicity =     1
 O                     0.        0.        0. 
 H                     0.7586    0.        0.50428 
 H                    -0.7586    0.        0.50428 
 
 ITRead=  0  0  0
 MicOpt= -1 -1 -1
 NAtoms=      3 NQM=        3 NQMF=       0 NMMI=      0 NMMIF=      0
                NMic=       0 NMicF=      0.
                    Isotopes and Nuclear Properties:
 (Nuclear quadrupole moments (NQMom) in fm**2, nuclear magnetic moments (NMagM)
  in nuclear magnetons)

  Atom         1           2           3
 IAtWgt=          16           1           1
 AtmWgt=  15.9949146   1.0078250   1.0078250
 NucSpn=           0           1           1
 AtZEff=   -0.000000   -0.000000   -0.000000
 NQMom=    0.0000000   0.0000000   0.0000000
 NMagM=    0.0000000   2.7928460   2.7928460
 AtZNuc=   8.0000000   1.0000000   1.0000000
 Leave Link  101 at Sat Aug  2 15:35:49 2025, MaxMem= 12348030976 cpu:               0.6 elap:               0.1
 (Enter /home/hhratchian/gaussian/gdv-20250101-j30+/gdv/l202.exe)
                          Input orientation:                          
 ---------------------------------------------------------------------
 Center     Atomic      Atomic             Coordinates (Angstroms)
 Number     Number       Type             X           Y           Z
 ---------------------------------------------------------------------
      1          8           0        0.000000    0.000000    0.000000
      2          1           0        0.758602    0.000000    0.504284
      3          1           0       -0.758602   -0.000000    0.504284
 ---------------------------------------------------------------------
                    Distance matrix (angstroms):
                    1          2          3
     1  O    0.000000
     2  H    0.910922   0.000000
     3  H    0.910922   1.517204   0.000000
 Stoichiometry    H2O
 Framework group  C2V[C2(O),SGV(H2)]
 Deg. of freedom     2
 Full point group                 C2V     NOp   4
 Largest Abelian subgroup         C2V     NOp   4
 Largest concise Abelian subgroup C2      NOp   2
                         Standard orientation:                         
 ---------------------------------------------------------------------
 Center     Atomic      Atomic             Coordinates (Angstroms)
 Number     Number       Type             X           Y           Z
 ---------------------------------------------------------------------
      1          8           0        0.000000    0.000000    0.100857
      2          1           0       -0.000000    0.758602   -0.403427
      3          1           0       -0.000000   -0.758602   -0.403427
 ---------------------------------------------------------------------
 Rotational constants (GHZ):        1110.1894251         435.6864908         312.8935057
 Leave Link  202 at Sat Aug  2 15:35:49 2025, MaxMem= 12348030976 cpu:               1.5 elap:               0.0
 (Enter /home/hhratchian/gaussian/gdv-20250101-j30+/gdv/local/l301.exe)
 Standard basis: 6-31+G(d,p) (6D, 7F)
 Ernie: Thresh=  0.10000D-02 Tol=  0.10000D-05 Strict=F.
 There are    14 symmetry adapted cartesian basis functions of A1  symmetry.
 There are     2 symmetry adapted cartesian basis functions of A2  symmetry.
 There are     5 symmetry adapted cartesian basis functions of B1  symmetry.
 There are     8 symmetry adapted cartesian basis functions of B2  symmetry.
 There are    14 symmetry adapted basis functions of A1  symmetry.
 There are     2 symmetry adapted basis functions of A2  symmetry.
 There are     5 symmetry adapted basis functions of B1  symmetry.
 There are     8 symmetry adapted basis functions of B2  symmetry.
    29 basis functions,    46 primitive gaussians,    29 cartesian basis functions
     5 alpha electrons        5 beta electrons
       nuclear repulsion energy         9.6435792538 Hartrees.
 IExCor=         0 DFT=F Ex=HF Corr=None N6=None ScaHFX=  1.000000
 ScaDFX=  1.000000  1.000000  1.000000  1.000000  1.000000  0.000000
 ScaDFX=  0.000000  0.000000  0.000000  0.000000  0.000000  0.000000
 Grid=UltraFine IRanWt=     -1 IRanGd=            0 ICorTp=0 IEDCtl=  2004
 NAtoms=    3 NActive=    3 NUniq=    2 SFac= 2.25D+00 NAtFMM=   60 NAOKFM=F Big=F
 Integral buffers will be    131072 words long.
 Raffenetti 2 integral format.
 Two-electron integral symmetry is turned on.
 Leave Link  301 at Sat Aug  2 15:35:49 2025, MaxMem= 12348030976 cpu:               0.1 elap:               0.0
 (Enter /home/hhratchian/gaussian/gdv-20250101-j30+/gdv/l302.exe)
 NPDir=0 NMtPBC=     1 NCelOv=     1 NCel=       1 NClECP=     1 NCelD=      1
         NCelK=      1 NCelE2=     1 NClLst=     1 CellRange=     0.0.
 One-electron integrals computed using PRISM.
 One-electron integral symmetry used in STVInt
 NBasis=    29 RedAO= T EigKep=  1.62D-02  NBF=    14     2     5     8
 NBsUse=    29 1.00D-06 EigRej= -1.00D+00 NBFU=    14     2     5     8
 Leave Link  302 at Sat Aug  2 15:35:49 2025, MaxMem= 12348030976 cpu:               4.2 elap:               0.1
 (Enter /home/hhratchian/gaussian/gdv-20250101-j30+/gdv/l303.exe)
 DipDrv:  MaxL=1.
 Leave Link  303 at Sat Aug  2 15:35:49 2025, MaxMem= 12348030976 cpu:               1.4 elap:               0.1
 (Enter /home/hhratchian/gaussian/gdv-20250101-j30+/gdv/l401.exe)
 ExpMin= 8.45D-02 ExpMax= 5.48D+03 ExpMxC= 8.25D+02 IAcc=3 Grid=UltraFine AccDes= 0.00D+00
 Harris functional with IExCor= 2005 and Grid=UltraFine diagonalized for initial guess.
 HarFok:  IExCor=    2005 AccDes= 0.00D+00 Grid=UltraFine IDoV= 1 UseB2=F ITyADJ=14 ICtDFT=  3500011
 FoFCou: FMM=F IPFlag=           0 FMFlag=      100000 FMFlg1=           0
         NFxFlg=           0 DoJE=T BraDBF=F KetDBF=T FulRan=T
         wScrn=  0.000000 ICntrl=       500 IOpCl=  0 I1Cent=   200000004 NGrid=           0
         NMat0=    1 NMatS0=      1 NMatT0=    0 NMatD0=    1 NMtDS0=    0 NMtDT0=    0
 Petite list used in FoFCou.
 Harris En= -76.1162611822955    
 JPrj=0 DoOrth=F DoCkMO=T.
 Mixing orbitals, IMix= 1 IMixAn=  0 NRI=1 NE=    5 Coef=  7.07106781D-01  7.07106781D-01
 Initial guess orbital symmetries:
       Occupied  (A1) (A1) (B2) (A1) (?A)
       Virtual   (?A) (B2) (A1) (B1) (B2) (A1) (B2) (A1) (B1) (B2)
                 (A1) (A1) (A2) (A1) (B1) (B2) (A1) (B2) (B1) (A2)
                 (A1) (A1) (B2) (A1)
 Leave Link  401 at Sat Aug  2 15:35:49 2025, MaxMem= 12348030976 cpu:               6.4 elap:               0.2
 (Enter /home/hhratchian/gaussian/gdv-20250101-j30+/gdv/local/l502.exe)
 Keep R1 ints in memory in symmetry-blocked form, NReq=11605441.
 FoFCou: FMM=F IPFlag=           0 FMFlag=           0 FMFlg1=           0
         NFxFlg=           0 DoJE=F BraDBF=F KetDBF=F FulRan=T
         wScrn=  0.000000 ICntrl=       600 IOpCl=  0 I1Cent=           0 NGrid=           0
         NMat0=    1 NMatS0=    435 NMatT0=    0 NMatD0=    1 NMtDS0=    0 NMtDT0=    0
 Petite list used in FoFCou.
 Closed shell SCF:
 Using DIIS extrapolation, IDIIS=    10.
 NGot= 12348030976 LenX= 12347998860 LenY= 12347997578
 Requested convergence on RMS density matrix=1.00D-08 within 128 cycles.
 Requested convergence on MAX density matrix=1.00D-06.
 Requested convergence on             energy=1.00D-06.
 Level shift goal  0.100 maximum shift  0.100.
 No special actions if energy rises.
 Dynamic level shift is on during FON iterations.
 An orbital has undefined symmetry, so N**3 symmetry is turned off.
 
  Hrant - CycOpn.
 

 Cycle   1  Pass 1  IDiag  1:
 Density matrix breaks symmetry, PCut= 1.00D-07
 Density matrix has no symmetry -- integrals replicated.
 E= -75.6285390989207    
 DIIS: error= 7.16D-02 at cycle   1 NSaved=   1.
 NSaved= 1 IEnMin= 1 EnMin= -75.6285390989207     IErMin= 1 ErrMin= 7.16D-02
 ErrMax= 7.16D-02  0.00D+00 EMaxC= 1.00D+00 BMatC= 4.11D-02 BMatP= 4.11D-02
 Rises=F IDIUse=1 WtCom= 1.00D+00 WtEn= 0.00D+00
 Coeff-Com:  0.100D+01
 Coeff:      0.100D+01
 Gap=     0.316 Goal=     0.100 Shift=    0.000
 T= 2018. Gap= 0.498 NK=0 IS=    6 IE=   29 IFin=    5
          NO(<0.9)=   0  NV(>0.1)=   0      5.00e < EF      0.00e >EF  Err=0.0D+00
 GapD=    0.316 DampG=1.000 DampE=0.500 DampFc=0.5000 IDamp=-1.
 Damping current iteration by 5.00D-01
 RMSDP=4.24D-02 MaxDP=5.75D-01              OVMax= 4.45D-01

 Cycle   2  Pass 1  IDiag  1:
 Density matrix breaks symmetry, PCut= 1.00D-07
 Density matrix has no symmetry -- integrals replicated.
 E= -75.7540613483440     Delta-E=       -0.125522249423 Rises=F Damp=T AM=F Ri=F Fa=F
 DIIS: error= 5.22D-02 at cycle   2 NSaved=   2.
 NSaved= 2 IEnMin= 2 EnMin= -75.7540613483440     IErMin= 2 ErrMin= 5.22D-02
 ErrMax= 5.22D-02  0.00D+00 EMaxC= 1.00D+00 BMatC= 2.10D-02 BMatP= 4.11D-02
 Rises=F IDIUse=1 WtCom= 1.00D+00 WtEn= 0.00D+00
 Coeff-Com: -0.478D+00 0.148D+01
 Coeff:     -0.478D+00 0.148D+01
 Gap=     0.517 Goal=     0.100 Shift=    0.000
 T= 1961. Gap= 0.531 NK=0 IS=    6 IE=   29 IFin=    5
          NO(<0.9)=   0  NV(>0.1)=   0      5.00e < EF      0.00e >EF  Err=0.0D+00
 GapD=    0.517 DampG=2.000 DampE=0.500 DampFc=1.0000 IDamp=-1.
 RMSDP=2.81D-02 MaxDP=3.52D-01 DE=-1.26D-01 OVMax= 1.27D-01

 Cycle   3  Pass 1  IDiag  1:
 Density matrix breaks symmetry, PCut= 1.00D-07
 Density matrix has no symmetry -- integrals replicated.
 E= -75.9945980307578     Delta-E=       -0.240536682414 Rises=F Damp=F AM=F Ri=F Fa=F
 DIIS: error= 2.71D-02 at cycle   3 NSaved=   3.
 NSaved= 3 IEnMin= 3 EnMin= -75.9945980307578     IErMin= 3 ErrMin= 2.71D-02
 ErrMax= 2.71D-02  0.00D+00 EMaxC= 1.00D+00 BMatC= 3.57D-03 BMatP= 2.10D-02
 Rises=F IDIUse=1 WtCom= 1.00D+00 WtEn= 0.00D+00
 Coeff-Com: -0.152D+00 0.352D-01 0.112D+01
 Coeff:     -0.152D+00 0.352D-01 0.112D+01
 Gap=     0.641 Goal=     0.100 Shift=    0.000
 T= 1806. Gap= 0.661 NK=0 IS=    6 IE=   29 IFin=    5
          NO(<0.9)=   0  NV(>0.1)=   0      5.00e < EF      0.00e >EF  Err=0.0D+00
 GapD=    0.641 DampG=2.000 DampE=0.500 DampFc=1.0000 IDamp=-1.
 RMSDP=7.95D-03 MaxDP=8.03D-02 DE=-2.41D-01 OVMax= 1.28D-01

 Cycle   4  Pass 1  IDiag  1:
 Density matrix breaks symmetry, PCut= 1.00D-07
 Density matrix has no symmetry -- integrals replicated.
 E= -76.0234445709942     Delta-E=       -0.028846540236 Rises=F Damp=F AM=F Ri=F Fa=F
 DIIS: error= 1.10D-02 at cycle   4 NSaved=   4.
 NSaved= 4 IEnMin= 4 EnMin= -76.0234445709942     IErMin= 4 ErrMin= 1.10D-02
 ErrMax= 1.10D-02  0.00D+00 EMaxC= 1.00D+00 BMatC= 5.88D-04 BMatP= 3.57D-03
 Rises=F IDIUse=1 WtCom= 1.00D+00 WtEn= 0.00D+00
 Coeff-Com: -0.378D-01 0.114D+00-0.637D+00 0.156D+01
 Coeff:     -0.378D-01 0.114D+00-0.637D+00 0.156D+01
 Gap=     0.659 Goal=     0.100 Shift=    0.000
 T= 1498. Gap= 0.663 NK=0 IS=    6 IE=   29 IFin=    5
          NO(<0.9)=   0  NV(>0.1)=   0      5.00e < EF      0.00e >EF  Err=0.0D+00
 GapD=    0.659 DampG=2.000 DampE=0.500 DampFc=1.0000 IDamp=-1.
 RMSDP=3.75D-03 MaxDP=4.02D-02 DE=-2.88D-02 OVMax= 6.72D-02

 Cycle   5  Pass 1  IDiag  1:
 Density matrix breaks symmetry, PCut= 1.00D-07
 Density matrix has no symmetry -- integrals replicated.
 E= -76.0281452162913     Delta-E=       -0.004700645297 Rises=F Damp=F AM=F Ri=F Fa=F
 DIIS: error= 1.71D-03 at cycle   5 NSaved=   5.
 NSaved= 5 IEnMin= 5 EnMin= -76.0281452162913     IErMin= 5 ErrMin= 1.71D-03
 ErrMax= 1.71D-03  0.00D+00 EMaxC= 1.00D+00 BMatC= 1.97D-05 BMatP= 5.88D-04
 Rises=F IDIUse=1 WtCom= 1.00D+00 WtEn= 0.00D+00
 Coeff-Com:  0.220D-01-0.491D-01 0.823D-01-0.259D+00 0.120D+01
 Coeff:      0.220D-01-0.491D-01 0.823D-01-0.259D+00 0.120D+01
 Gap=     0.661 Goal=     0.100 Shift=    0.000
 T= 1007. Gap= 0.661 NK=0 IS=    6 IE=   29 IFin=    5
          NO(<0.9)=   0  NV(>0.1)=   0      5.00e < EF      0.00e >EF  Err=0.0D+00
 GapD=    0.661 DampG=2.000 DampE=1.000 DampFc=2.0000 IDamp=-1.
 RMSDP=5.52D-04 MaxDP=5.22D-03 DE=-4.70D-03 OVMax= 9.49D-03

 Cycle   6  Pass 1  IDiag  1:
 Density matrix breaks symmetry, PCut= 1.00D-07
 Density matrix has no symmetry -- integrals replicated.
 E= -76.0282476506134     Delta-E=       -0.000102434322 Rises=F Damp=F AM=F Ri=F Fa=F
 DIIS: error= 3.52D-04 at cycle   6 NSaved=   6.
 NSaved= 6 IEnMin= 6 EnMin= -76.0282476506134     IErMin= 6 ErrMin= 3.52D-04
 ErrMax= 3.52D-04  0.00D+00 EMaxC= 1.00D+00 BMatC= 1.27D-06 BMatP= 1.97D-05
 Rises=F IDIUse=1 WtCom= 1.00D+00 WtEn= 0.00D+00
 Coeff-Com: -0.714D-02 0.113D-01 0.201D-01-0.355D-01-0.190D+00 0.120D+01
 Coeff:     -0.714D-02 0.113D-01 0.201D-01-0.355D-01-0.190D+00 0.120D+01
 Gap=     0.659 Goal=     0.100 Shift=    0.000
 RMSDP=1.51D-04 MaxDP=1.96D-03 DE=-1.02D-04 OVMax= 1.34D-03

 Cycle   7  Pass 1  IDiag  1:
 Density matrix breaks symmetry, PCut= 1.00D-07
 Density matrix has no symmetry -- integrals replicated.
 E= -76.0282528117314     Delta-E=       -0.000005161118 Rises=F Damp=F AM=F Ri=F Fa=F
 DIIS: error= 7.96D-05 at cycle   7 NSaved=   7.
 NSaved= 7 IEnMin= 7 EnMin= -76.0282528117314     IErMin= 7 ErrMin= 7.96D-05
 ErrMax= 7.96D-05  0.00D+00 EMaxC= 1.00D+00 BMatC= 5.78D-08 BMatP= 1.27D-06
 Rises=F IDIUse=1 WtCom= 1.00D+00 WtEn= 0.00D+00
 Coeff-Com:  0.143D-02-0.197D-02-0.787D-02 0.172D-01-0.516D-02-0.268D+00
 Coeff-Com:  0.126D+01
 Coeff:      0.143D-02-0.197D-02-0.787D-02 0.172D-01-0.516D-02-0.268D+00
 Coeff:      0.126D+01
 Gap=     0.660 Goal=     0.100 Shift=    0.000
 RMSDP=2.99D-05 MaxDP=2.32D-04 DE=-5.16D-06 OVMax= 4.32D-04

 Cycle   8  Pass 1  IDiag  1:
 Density matrix breaks symmetry, PCut= 1.00D-07
 Density matrix has no symmetry -- integrals replicated.
 E= -76.0282531293209     Delta-E=       -0.000000317590 Rises=F Damp=F AM=F Ri=F Fa=F
 DIIS: error= 1.48D-05 at cycle   8 NSaved=   8.
 NSaved= 8 IEnMin= 8 EnMin= -76.0282531293209     IErMin= 8 ErrMin= 1.48D-05
 ErrMax= 1.48D-05  0.00D+00 EMaxC= 1.00D+00 BMatC= 3.60D-09 BMatP= 5.78D-08
 Rises=F IDIUse=1 WtCom= 1.00D+00 WtEn= 0.00D+00
 Coeff-Com: -0.477D-03 0.895D-03 0.192D-03-0.743D-03-0.152D-02 0.290D-02
 Coeff-Com: -0.142D+00 0.114D+01
 Coeff:     -0.477D-03 0.895D-03 0.192D-03-0.743D-03-0.152D-02 0.290D-02
 Coeff:     -0.142D+00 0.114D+01
 Gap=     0.660 Goal=     0.100 Shift=    0.000
 RMSDP=4.87D-06 MaxDP=4.74D-05 DE=-3.18D-07 OVMax= 6.48D-05

 Cycle   9  Pass 1  IDiag  1:
 Density matrix breaks symmetry, PCut= 1.00D-07
 Density matrix has no symmetry -- integrals replicated.
 E= -76.0282531415831     Delta-E=       -0.000000012262 Rises=F Damp=F AM=F Ri=F Fa=F
 DIIS: error= 5.07D-06 at cycle   9 NSaved=   9.
 NSaved= 9 IEnMin= 9 EnMin= -76.0282531415831     IErMin= 9 ErrMin= 5.07D-06
 ErrMax= 5.07D-06  0.00D+00 EMaxC= 1.00D+00 BMatC= 2.19D-10 BMatP= 3.60D-09
 Rises=F IDIUse=1 WtCom= 1.00D+00 WtEn= 0.00D+00
 Coeff-Com: -0.171D-04-0.326D-04 0.377D-03-0.748D-03 0.970D-03 0.140D-01
 Coeff-Com: -0.759D-01 0.273D-01 0.103D+01
 Coeff:     -0.171D-04-0.326D-04 0.377D-03-0.748D-03 0.970D-03 0.140D-01
 Coeff:     -0.759D-01 0.273D-01 0.103D+01
 Gap=     0.660 Goal=     0.100 Shift=    0.000
 RMSDP=1.57D-06 MaxDP=1.85D-05 DE=-1.23D-08 OVMax= 2.25D-05

 Cycle  10  Pass 1  IDiag  1:
 Density matrix breaks symmetry, PCut= 1.00D-07
 Density matrix has no symmetry -- integrals replicated.
 E= -76.0282531423544     Delta-E=       -0.000000000771 Rises=F Damp=F AM=F Ri=F Fa=F
 DIIS: error= 8.56D-07 at cycle  10 NSaved=  10.
 NSaved=10 IEnMin=10 EnMin= -76.0282531423544     IErMin=10 ErrMin= 8.56D-07
 ErrMax= 8.56D-07  0.00D+00 EMaxC= 1.00D+00 BMatC= 1.07D-11 BMatP= 2.19D-10
 Rises=F IDIUse=1 WtCom= 1.00D+00 WtEn= 0.00D+00
 Coeff-Com: -0.144D-05 0.119D-04-0.950D-04 0.146D-03 0.269D-04-0.540D-02
 Coeff-Com:  0.286D-01-0.405D-01-0.325D+00 0.134D+01
 Coeff:     -0.144D-05 0.119D-04-0.950D-04 0.146D-03 0.269D-04-0.540D-02
 Coeff:      0.286D-01-0.405D-01-0.325D+00 0.134D+01
 Gap=     0.660 Goal=     0.100 Shift=    0.000
 RMSDP=3.17D-07 MaxDP=3.20D-06 DE=-7.71D-10 OVMax= 3.39D-06

 Cycle  11  Pass 1  IDiag  1:
 Density matrix breaks symmetry, PCut= 1.00D-07
 Density matrix has no symmetry -- integrals replicated.
 E= -76.0282531423915     Delta-E=       -0.000000000037 Rises=F Damp=F AM=F Ri=F Fa=F
 DIIS: error= 1.44D-07 at cycle  11 NSaved=  11.
 NSaved=11 IEnMin=11 EnMin= -76.0282531423915     IErMin=11 ErrMin= 1.44D-07
 ErrMax= 1.44D-07  0.00D+00 EMaxC= 1.00D+00 BMatC= 2.35D-13 BMatP= 1.07D-11
 Rises=F IDIUse=1 WtCom= 1.00D+00 WtEn= 0.00D+00
 Coeff-Com:  0.966D-06-0.279D-05 0.585D-05 0.103D-04-0.112D-03 0.107D-02
 Coeff-Com: -0.466D-02 0.624D-02 0.660D-01-0.397D+00 0.133D+01
 Coeff:      0.966D-06-0.279D-05 0.585D-05 0.103D-04-0.112D-03 0.107D-02
 Coeff:     -0.466D-02 0.624D-02 0.660D-01-0.397D+00 0.133D+01
 Gap=     0.660 Goal=     0.100 Shift=    0.000
 RMSDP=4.87D-08 MaxDP=4.92D-07 DE=-3.72D-11 OVMax= 6.67D-07

 Cycle  12  Pass 1  IDiag  1:
 Density matrix breaks symmetry, PCut= 1.00D-07
 Density matrix has no symmetry -- integrals replicated.
 E= -76.0282531423927     Delta-E=       -0.000000000001 Rises=F Damp=F AM=F Ri=F Fa=F
 DIIS: error= 3.25D-08 at cycle  12 NSaved=  12.
 NSaved=12 IEnMin=12 EnMin= -76.0282531423927     IErMin=12 ErrMin= 3.25D-08
 ErrMax= 3.25D-08  0.00D+00 EMaxC= 1.00D+00 BMatC= 9.40D-15 BMatP= 2.35D-13
 Rises=F IDIUse=1 WtCom= 1.00D+00 WtEn= 0.00D+00
 Coeff-Com: -0.289D-06 0.265D-06 0.199D-05-0.552D-05 0.166D-04 0.313D-04
 Coeff-Com: -0.346D-03 0.474D-03 0.347D-02 0.424D-02-0.189D+00 0.118D+01
 Coeff:     -0.289D-06 0.265D-06 0.199D-05-0.552D-05 0.166D-04 0.313D-04
 Coeff:     -0.346D-03 0.474D-03 0.347D-02 0.424D-02-0.189D+00 0.118D+01
 Gap=     0.660 Goal=     0.100 Shift=    0.000
 RMSDP=1.01D-08 MaxDP=8.98D-08 DE=-1.17D-12 OVMax= 1.35D-07

 Cycle  13  Pass 1  IDiag  1:
 E= -76.0282531423929     Delta-E=       -0.000000000000 Rises=F Damp=F AM=F Ri=F Fa=F
 DIIS: error= 5.72D-09 at cycle  13 NSaved=  13.
 NSaved=13 IEnMin=13 EnMin= -76.0282531423929     IErMin=13 ErrMin= 5.72D-09
 ErrMax= 5.72D-09  0.00D+00 EMaxC= 1.00D+00 BMatC= 1.76D-16 BMatP= 9.40D-15
 Rises=F IDIUse=1 WtCom= 1.00D+00 WtEn= 0.00D+00
 Coeff-Com:  0.522D-07-0.726D-07-0.631D-07-0.101D-06 0.173D-05-0.187D-04
 Coeff-Com:  0.102D-03-0.239D-03-0.143D-02 0.490D-02-0.215D-01-0.542D-01
 Coeff-Com:  0.107D+01
 Coeff:      0.522D-07-0.726D-07-0.631D-07-0.101D-06 0.173D-05-0.187D-04
 Coeff:      0.102D-03-0.239D-03-0.143D-02 0.490D-02-0.215D-01-0.542D-01
 Coeff:      0.107D+01
 Gap=     0.660 Goal=     0.100 Shift=    0.000
 RMSDP=3.76D-09 MaxDP=2.72D-08 DE=-1.99D-13 OVMax= 3.07D-08

 SCF Done:  E(RHF) =  -76.0282531424     A.U. after   13 cycles
            NFock= 13  Conv=0.38D-08     -V/T= 2.0013
 KE=          75.927601 PE=        -199.678156 EE=          38.078723
 Leave Link  502 at Sat Aug  2 15:35:50 2025, MaxMem= 12348030976 cpu:               3.3 elap:               0.1
 (Enter /home/hhratchian/gaussian/gdv-20250101-j30+/gdv/l601.exe)
 Copying SCF densities to generalized density rwf, IOpCl= 0 IROHF=0.
 
 **********************************************************************
 
               Population analysis using the SCF Density.
 
 **********************************************************************
 
 Orbital symmetries:
       Occupied  (A1) (A1) (B2) (A1) (B1)
       Virtual   (A1) (B2) (A1) (B1) (B2) (A1) (B2) (A1) (B2) (A1)
                 (B1) (A1) (A2) (A1) (B1) (B2) (A1) (B1) (B2) (A2)
                 (A1) (A1) (B2) (A1)
 The electronic state is 1-A1.
 Alpha  occ. eigenvalues --      -20.57117      -1.37562      -0.76279      -0.57584      -0.51114
 Alpha virt. eigenvalues --        0.14859       0.21388       0.25049       0.25179       0.38418
 Alpha virt. eigenvalues --        0.39156       1.23960       1.29927       1.32180       1.36543
 Alpha virt. eigenvalues --        1.40556       1.45137       1.77947       1.87019       1.94401
 Alpha virt. eigenvalues --        2.55869       2.62741       2.98467       2.99603       3.07844
 Alpha virt. eigenvalues --        3.47502       3.85283       3.97383       4.41763
          Condensed to atoms (all electrons):
               1          2          3
     1  O    8.100608   0.317236   0.317236
     2  H    0.317236   0.340138  -0.024914
     3  H    0.317236  -0.024914   0.340138
 Mulliken charges:
               1
     1  O   -0.735080
     2  H    0.367540
     3  H    0.367540
 Sum of Mulliken charges=  -0.00000
 Mulliken charges with hydrogens summed into heavy atoms:
               1
     1  O   -0.000000
 Electronic spatial extent (au):  <R**2>=             18.9259
 Charge=             -0.0000 electrons
 Dipole moment (field-independent basis, Debye):
    X=             -0.0000    Y=             -0.0000    Z=             -2.0954  Tot=              2.0954
 Quadrupole moment (field-independent basis, Debye-Ang):
   XX=             -7.5216   YY=             -3.9776   ZZ=             -6.4742
   XY=              0.0000   XZ=              0.0000   YZ=              0.0000
 Traceless Quadrupole moment (field-independent basis, Debye-Ang):
   XX=             -1.5305   YY=              2.0135   ZZ=             -0.4830
   XY=              0.0000   XZ=              0.0000   YZ=              0.0000
 Octapole moment (field-independent basis, Debye-Ang**2):
  XXX=              0.0000  YYY=              0.0000  ZZZ=             -1.5234  XYY=             -0.0000
  XXY=             -0.0000  XXZ=             -0.4554  XZZ=              0.0000  YZZ=              0.0000
  YYZ=             -1.3581  XYZ=             -0.0000
 Hexadecapole moment (field-independent basis, Debye-Ang**3):
 XXXX=             -6.6480 YYYY=             -5.1982 ZZZZ=             -6.8891 XXXY=             -0.0000
 XXXZ=             -0.0000 YYYX=              0.0000 YYYZ=             -0.0000 ZZZX=             -0.0000
 ZZZY=              0.0000 XXYY=             -2.2810 XXZZ=             -2.2889 YYZZ=             -1.8143
 XXYZ=              0.0000 YYXZ=              0.0000 ZZXY=              0.0000
 N-N=           9.643579 E-N=        -199.678156  KE=          75.927601
 Symmetry A1   KE=          67.835045
 Symmetry A2   KE=           0.000000
 Symmetry B1   KE=           4.443984
 Symmetry B2   KE=           3.648572
 No NMR shielding tensors so no spin-rotation constants.
 Leave Link  601 at Sat Aug  2 15:35:50 2025, MaxMem= 12348030976 cpu:               4.0 elap:               0.1
 (Enter /home/hhratchian/gaussian/gdv-20250101-j30+/gdv/l801.exe)
 Range of M.O.s used for correlation:     1    29
 NBasis=    29 NAE=     5 NBE=     5 NFC=     0 NFV=     0
 NROrb=     29 NOA=     5 NOB=     5 NVA=    24 NVB=    24
 Leave Link  801 at Sat Aug  2 15:35:50 2025, MaxMem= 12348030976 cpu:               0.1 elap:               0.0
 (Enter /home/hhratchian/gaussian/gdv-20250101-j30+/gdv/l914.exe)
 RHF ground state
 Doing stability rather than CIS.
 Keep R1 and R2 ints in memory in symmetry-blocked form, NReq=11605788.
 FoFCou: FMM=F IPFlag=           0 FMFlag=           0 FMFlg1=           0
         NFxFlg=           0 DoJE=F BraDBF=F KetDBF=F FulRan=T
         wScrn=  0.000000 ICntrl=       600 IOpCl=  0 I1Cent=           0 NGrid=           0
         NMat0=    1 NMatS0=    435 NMatT0=    0 NMatD0=    1 NMtDS0=    0 NMtDT0=    0
 Petite list used in FoFCou.
 MDV= 12348030976 DFT=F IDoStb=1 Mixed=F DoRPA=F DoScal=F NonHer=F
 Making orbital integer symmetry assigments:
 Orbital symmetries:
       Occupied  (A1) (A1) (B2) (A1) (B1)
       Virtual   (A1) (B2) (A1) (B1) (B2) (A1) (B2) (A1) (B2) (A1)
                 (B1) (A1) (A2) (A1) (B1) (B2) (A1) (B1) (B2) (A2)
                 (A1) (A1) (B2) (A1)
    24 initial guesses have been made.
 Convergence on wavefunction:    0.001000000000000
 Davidson Disk Diagonalization:  ConvIn= 1.00D-03 SkipCon=T Conv= 1.00D-03.
 Max sub-space:   480 initial roots:    24 roots to seek:     1 dimension of matrix:          240
 Iteration     1 Dimension    24 NMult     0 NNew     24
 CISAX will form    24 AO SS matrices at one time.
 NMat=    24 NSing=    12 JSym2X= 2.
 New state      1 was old state      2
 Excitation Energies [eV] at current iteration:
 Root      1 :     8.480185637811191
 Root      2 :    10.133272350024395
 Root      3 :    10.300091206636566
 Root      4 :    10.684456364954242
 Root      5 :    11.218064142175711
 Root      6 :    11.924604718745904
 Root      7 :    11.970096949827456
 Root      8 :    12.092520198060996
 Root      9 :    12.167323751454902
 Root     10 :    13.018720730439453
 Root     11 :    13.122208953561408
 Root     12 :    13.771659490091336
 Root     13 :    14.033176587123590
 Root     14 :    14.416970330299835
 Root     15 :    14.702850480495730
 Root     16 :    14.946637660018917
 Root     17 :    15.076147513841487
 Root     18 :    15.225781549728405
 Root     19 :    15.443855215329199
 Root     20 :    16.126837278861267
 Root     21 :    16.768684687141231
 Root     22 :    17.267446128485798
 Root     23 :    18.854148592651040
 Root     24 :    21.338400411391934
 Iteration     2 Dimension    48 NMult    24 NNew     24
 CISAX will form    24 AO SS matrices at one time.
 NMat=    24 NSing=    12 JSym2X= 2.
 Root      1 not converged, maximum delta is    0.051664043355339
 Excitation Energies [eV] at current iteration:
 Root      1 :     8.138659181900683   Change is   -0.341526455910508
 Root      2 :     9.655008213264532   Change is   -0.645082993372034
 Root      3 :    10.017271481961863   Change is   -0.116000868062532
 Root      4 :    10.138113435580776   Change is   -0.546342929373465
 Root      5 :    10.761578943215435   Change is   -0.456485198960275
 Root      6 :    11.388818653033606   Change is   -0.778505098421294
 Root      7 :    11.757744122487011   Change is   -0.212352827340444
 Root      8 :    11.795673056898359   Change is   -0.128931661847546
 Root      9 :    11.935695363293119   Change is   -0.156824834767878
 Root     10 :    12.644525315886007   Change is   -0.374195414553445
 Root     11 :    13.089788639914456   Change is   -0.032420313646951
 Root     12 :    13.386752363155594   Change is   -0.384907126935743
 Root     13 :    13.865165009322117   Change is   -0.168011577801471
 Root     14 :    14.304940875943975   Change is   -0.112029454355860
 Root     15 :    14.353212577666095   Change is   -0.593425082352822
 Root     16 :    14.556974671466262   Change is   -0.145875809029467
 Root     17 :    14.990219532706185   Change is   -0.085927981135303
 Root     18 :    15.151916644432060   Change is   -0.073864905296345
 Root     19 :    15.270916885989140   Change is   -0.172938329340060
 Root     20 :    15.722064092876876   Change is   -0.404773185984391
 Root     21 :    15.866262399518604   Change is   -5.472138011873327
 Root     22 :    16.326240769269198   Change is   -0.442443917872033
 Root     23 :    16.946202162633565   Change is   -0.321243965852235
 Root     24 :    17.713746624441633   Change is   -1.140401968209406
 Iteration     3 Dimension    54 NMult    48 NNew      6
 CISAX will form     6 AO SS matrices at one time.
 NMat=     6 NSing=     3 JSym2X= 2.
 Root      1 not converged, maximum delta is    0.005557888768515
 Excitation Energies [eV] at current iteration:
 Root      1 :     8.134655707671435   Change is   -0.004003474229248
 Root      2 :     9.414843011331568   Change is   -0.240165201932965
 Root      3 :    10.017000517936276   Change is   -0.000270964025588
 Root      4 :    10.115910450907489   Change is   -0.022202984673288
 Root      5 :    11.794473588855318   Change is   -0.001199468043040
 Root      6 :    11.930780447393850   Change is   -0.004914915899267
 Iteration     4 Dimension    60 NMult    54 NNew      6
 CISAX will form     6 AO SS matrices at one time.
 NMat=     6 NSing=     3 JSym2X= 2.
 Root      1 has converged.
 Excitation Energies [eV] at current iteration:
 Root      1 :     8.134643214327586   Change is   -0.000012493343849
 Root      2 :     9.381423003332083   Change is   -0.033420007999484
 Root      3 :    10.016999040975751   Change is   -0.000001476960525
 Root      4 :    10.114502704989937   Change is   -0.001407745917551
 Root      5 :    11.787220485222431   Change is   -0.007253103632889
 Root      6 :    11.930393078651534   Change is   -0.000387368742317
 Convergence achieved on expansion vectors.
 1PDM for each excited state written to RWF  633
 Ground to excited state transition densities written to RWF  633

 ***********************************************************************
 Stability analysis using <AA,BB:AA,BB> singles matrix:
 ***********************************************************************

 Eigenvectors of the stability matrix:
 
 Eigenvector   1:      Triplet-B1   Eigenvalue= 0.2989426  <S**2>=2.000
       5 ->  6         0.65132
       5 -> 11        -0.22972
 The wavefunction is stable under the perturbations considered.
 Leave Link  914 at Sat Aug  2 15:35:50 2025, MaxMem= 12348030976 cpu:               5.7 elap:               0.2
 (Enter /home/hhratchian/gaussian/gdv-20250101-j30+/gdv/l508.exe)
 The wavefunction is already stable.
 Leave Link  508 at Sat Aug  2 15:35:50 2025, MaxMem= 12348030976 cpu:               0.1 elap:               0.0
 (Enter /home/hhratchian/gaussian/gdv-20250101-j30+/gdv/l601.exe)
 Copying SCF densities to generalized density rwf, IOpCl= 0 IROHF=0.
 
 **********************************************************************
 
               Population analysis using the SCF Density.
 
 **********************************************************************
 
 Orbital symmetries:
       Occupied  (A1) (A1) (B2) (A1) (B1)
       Virtual   (A1) (B2) (A1) (B1) (B2) (A1) (B2) (A1) (B2) (A1)
                 (B1) (A1) (A2) (A1) (B1) (B2) (A1) (B1) (B2) (A2)
                 (A1) (A1) (B2) (A1)
 The electronic state is 1-A1.
 Alpha  occ. eigenvalues --      -20.57117      -1.37562      -0.76279      -0.57584      -0.51114
 Alpha virt. eigenvalues --        0.14859       0.21388       0.25049       0.25179       0.38418
 Alpha virt. eigenvalues --        0.39156       1.23960       1.29927       1.32180       1.36543
 Alpha virt. eigenvalues --        1.40556       1.45137       1.77947       1.87019       1.94401
 Alpha virt. eigenvalues --        2.55869       2.62741       2.98467       2.99603       3.07844
 Alpha virt. eigenvalues --        3.47502       3.85283       3.97383       4.41763
          Condensed to atoms (all electrons):
               1          2          3
     1  O    8.100608   0.317236   0.317236
     2  H    0.317236   0.340138  -0.024914
     3  H    0.317236  -0.024914   0.340138
 Mulliken charges:
               1
     1  O   -0.735080
     2  H    0.367540
     3  H    0.367540
 Sum of Mulliken charges=  -0.00000
 Mulliken charges with hydrogens summed into heavy atoms:
               1
     1  O   -0.000000
 Electronic spatial extent (au):  <R**2>=             18.9259
 Charge=             -0.0000 electrons
 Dipole moment (field-independent basis, Debye):
    X=             -0.0000    Y=             -0.0000    Z=             -2.0954  Tot=              2.0954
 Quadrupole moment (field-independent basis, Debye-Ang):
   XX=             -7.5216   YY=             -3.9776   ZZ=             -6.4742
   XY=              0.0000   XZ=              0.0000   YZ=              0.0000
 Traceless Quadrupole moment (field-independent basis, Debye-Ang):
   XX=             -1.5305   YY=              2.0135   ZZ=             -0.4830
   XY=              0.0000   XZ=              0.0000   YZ=              0.0000
 Octapole moment (field-independent basis, Debye-Ang**2):
  XXX=              0.0000  YYY=              0.0000  ZZZ=             -1.5234  XYY=             -0.0000
  XXY=             -0.0000  XXZ=             -0.4554  XZZ=              0.0000  YZZ=              0.0000
  YYZ=             -1.3581  XYZ=             -0.0000
 Hexadecapole moment (field-independent basis, Debye-Ang**3):
 XXXX=             -6.6480 YYYY=             -5.1982 ZZZZ=             -6.8891 XXXY=             -0.0000
 XXXZ=             -0.0000 YYYX=              0.0000 YYYZ=             -0.0000 ZZZX=             -0.0000
 ZZZY=              0.0000 XXYY=             -2.2810 XXZZ=             -2.2889 YYZZ=             -1.8143
 XXYZ=              0.0000 YYXZ=              0.0000 ZZXY=              0.0000
 N-N=           9.643579 E-N=        -199.678156  KE=          75.927601
 Symmetry A1   KE=          67.835045
 Symmetry A2   KE=           0.000000
 Symmetry B1   KE=           4.443984
 Symmetry B2   KE=           3.648572
 No NMR shielding tensors so no spin-rotation constants.
 Leave Link  601 at Sat Aug  2 15:35:50 2025, MaxMem= 12348030976 cpu:               4.6 elap:               0.1
 (Enter /home/hhratchian/gaussian/gdv-20250101-j30+/gdv/local/l9999.exe)
 Unable to Open any file for archive entry.
 1\1\GINC-HMNODE006\Stability\RHF\6-31+G(d,p)\H2O1\AABOUTAKA\02-Aug-202
 5\0\\#P HF/6-31+G(d,p) SCF=(fermi,novaracc) Guess=Mix Stable=Opt\\Init
 ial Stability Check for H2O\\0,1\O,0,0.,0.,0.\H,0,0.758602,0.,0.504284
 \H,0,-0.758602,0.,0.504284\\Version=ES64L-GDVRevJ.30+\State=1-A1\HF=-7
 6.0282531\RMSD=3.759e-09\Dipole=0.,0.,0.8243827\Quadrupole=1.4970052,-
 1.1378877,-0.3591174,0.,0.,0.\PG=C02V [C2(O1),SGV(H2)]\\@
 The archive entry for this job was punched.


 I DON'T EXACTLY UNDERSTAND WHAT YOU ARE SAYING,
 BUT YOU ARE ABSOLUTELY RIGHT.
     M.S.GORDON, IN A NDSU FACULTY MEETING
 Job cpu time:       0 days  0 hours  0 minutes 34.8 seconds.
 Elapsed time:       0 days  0 hours  0 minutes  1.2 seconds.
 File lengths (MBytes):  RWF=     22 Int=      0 D2E=      0 Chk=      2 Scr=      2
 Normal termination of Gaussian DV at Sat Aug  2 15:35:50 2025.
 Initial command:
 /home/hhratchian/gaussian/gdv-20250101-j30+/gdv/local/l1.exe "/scratch/aaboutaka/1562805/Gau-90018.inp" -scrdir="/scratch/aaboutaka/1562805/"
 Default is to use a total of  56 processors:
                               56 via shared-memory
                                1 via Linda
 Entering Link 1 = /home/hhratchian/gaussian/gdv-20250101-j30+/gdv/local/l1.exe PID=     90790.
  
 Copyright (c) 1988-2024, Gaussian, Inc.  All Rights Reserved.
  
 This is the private, development version of
 the Gaussian(R) DV system of programs. It is based on
 the Gaussian(R) 16 system (copyright 2016, Gaussian, Inc.),
 the Gaussian(R) 09 system (copyright 2009, Gaussian, Inc.),
 the Gaussian(R) 03 system (copyright 2003, Gaussian, Inc.),
 the Gaussian(R) 98 system (copyright 1998, Gaussian, Inc.),
 the Gaussian(R) 94 system (copyright 1995, Gaussian, Inc.),
 the Gaussian 92(TM) system (copyright 1992, Gaussian, Inc.),
 the Gaussian 90(TM) system (copyright 1990, Gaussian, Inc.),
 the Gaussian 88(TM) system (copyright 1988, Gaussian, Inc.),
 the Gaussian 86(TM) system (copyright 1986, Carnegie Mellon
 University), and the Gaussian 82(TM) system (copyright 1983,
 Carnegie Mellon University). Gaussian is a federally registered
 trademark of Gaussian, Inc.
  
 This software contains proprietary and confidential information,
 including trade secrets, belonging to Gaussian, Inc.
  
 This software is provided under written license and may be
 used, copied, transmitted, or stored only in accord with that
 written license.
  
 The following legend is applicable only to US Government
 contracts under FAR:
  
                    RESTRICTED RIGHTS LEGEND
  
 Use, reproduction and disclosure by the US Government is
 subject to restrictions as set forth in subparagraphs (a)
 and (c) of the Commercial Computer Software - Restricted
 Rights clause in FAR 52.227-19.
  
 Gaussian, Inc.
 340 Quinnipiac St., Bldg. 40, Wallingford CT 06492
  
  
 ---------------------------------------------------------------
 Warning -- This program may not be used in any manner that
 competes with the business of Gaussian, Inc. or will provide
 assistance to any competitor of Gaussian, Inc.  The licensee
 of this program is prohibited from giving any competitor of
 Gaussian, Inc. access to this program.  By using this program,
 the user acknowledges that Gaussian, Inc. is engaged in the
 business of creating and licensing software in the field of
 computational chemistry and represents and warrants to the
 licensee that it is not a competitor of Gaussian, Inc. and that
 it will not use this program in any manner prohibited above.
 ---------------------------------------------------------------
  

 Cite this work as:
 Gaussian Development Version, Revision J.30+,
 M. J. Frisch, G. W. Trucks, G. Scalmani, J. R. Cheeseman, X. Li, 
 J. Bloino, B. G. Janesko, A. V. Marenich, J. Zheng, F. Lipparini, 
 A. Jenkins, A. Liu, H. Liu, H. B. Schlegel, G. E. Scuseria, 
 M. A. Robb, V. Barone, G. A. Petersson, H. Nakatsuji, B. Mennucci, 
 C. Adamo, N. Rega, M. Caricato, H. P. Hratchian, J. V. Ortiz, 
 F. Pawlowski, A. F. Izmaylov, H. Hu, C. Liao, J. L. Sonnenberg, 
 D. Williams-Young, F. Ding, R. Gomperts, F. Egidi, J. Goings, 
 B. Peng, A. Petrone, T. Henderson, D. Ranasinghe, V. G. Zakrzewski, 
 J. Gao, G. Zheng, W. Liang, M. Hada, M. Ehara, K. Toyota, R. Fukuda, 
 J. Hasegawa, M. Ishida, T. Nakajima, Y. Honda, O. Kitao, H. Nakai, 
 T. Vreven, K. Throssell, J. A. Montgomery, Jr., J. E. Peralta, 
 F. Ogliaro, M. J. Bearpark, J. J. Heyd, E. N. Brothers, K. N. Kudin, 
 V. N. Staroverov, T. A. Keith, R. Kobayashi, J. Normand, 
 K. Raghavachari, A. P. Rendell, J. C. Burant, S. S. Iyengar, 
 M. Cossi, J. M. Millam, M. Klene, R. Cammi, R. L. Martin, O. Farkas, 
 J. B. Foresman, and D. J. Fox, Gaussian, Inc., Wallingford CT, 2024.
 
 *******************************************
 Gaussian DV:  ES64L-GDVRevJ.30+ 18-Dec-2024
                  2-Aug-2025 
 *******************************************
 %Chk=H2O_HF_631pGdp.chk
 ----------------------------------------------------------------------
 #P HF chkbasis Geom=AllCheck Guess=Read Opt Freq SCF=(fermi, novaracc)
  int=superfinegrid
 ----------------------------------------------------------------------
 1/18=20,19=15,29=7,38=1/1,3;
 2/9=110,12=2/2;
 3/5=7,6=2,11=9,14=-4,25=1,30=1,67=1,71=1,75=-7,116=-2/1,2,3;
 4/5=1/1;
 5/5=2,22=13,38=6/2;
 6/7=2,8=2,9=2,10=2,28=1/1;
 7//1,2,3,16;
 1/18=20,19=15/3(2);
 2/9=110/2;
 99//99;
 2/9=110/2;
 3/5=7,6=1,11=9,14=-2,25=1,30=1,71=1,75=-7,82=7,187=7/1,2,3;
 4/5=5,16=3,69=1/1;
 5/5=2,22=13,38=1/2;
 7//1,2,3,16;
 1/18=20,19=15/3(-5);
 2/9=110/2;
 6/7=2,8=2,9=2,10=2,19=2,28=1/1;
 99/9=1/99;
 Leave Link    1 at Sat Aug  2 15:35:50 2025, MaxMem=           0 cpu:               1.4 elap:               0.1
 (Enter /home/hhratchian/gaussian/gdv-20250101-j30+/gdv/local/l101.exe)
 
  Hrant - IAPOps =                         0
  Hrant - IAPOp1 =                         0
  Hrant - IAPOp2 =                         0
  Hrant - DoAP   =   F
 
 Structure from the checkpoint file:  "H2O_HF_631pGdp.chk"
 -------------------------------
 Initial Stability Check for H2O
 -------------------------------
 Charge =     0 Multiplicity =     1
 Z-Matrix found in chk file.
 O,0,0.,0.,0.
 H,0,0.758602,0.,0.504284
 H,0,-0.758602,0.,0.504284
 
 Recover connectivity data from disk.
 Initializing the GIC definitions file.
 ITRead=  0  0  0
 MicOpt= -1 -1 -1
 NAtoms=      3 NQM=        3 NQMF=       0 NMMI=      0 NMMIF=      0
                NMic=       0 NMicF=      0.
                    Isotopes and Nuclear Properties:
 (Nuclear quadrupole moments (NQMom) in fm**2, nuclear magnetic moments (NMagM)
  in nuclear magnetons)

  Atom         1           2           3
 IAtWgt=          16           1           1
 AtmWgt=  15.9949146   1.0078250   1.0078250
 NucSpn=           0           1           1
 AtZEff=    5.600000    1.000000    1.000000
 NQMom=    0.0000000   0.0000000   0.0000000
 NMagM=    0.0000000   2.7928460   2.7928460
 AtZNuc=   8.0000000   1.0000000   1.0000000
 Leave Link  101 at Sat Aug  2 15:35:54 2025, MaxMem= 12348030976 cpu:               3.6 elap:               3.4
 (Enter /home/hhratchian/gaussian/gdv-20250101-j30+/gdv/l103.exe)

 GradGradGradGradGradGradGradGradGradGradGradGradGradGradGradGradGradGrad
 Berny optimization.
 Initialization pass.
                           ----------------------------
                           !    Initial Parameters    !
                           ! (Angstroms and Degrees)  !
 --------------------------                            --------------------------
 ! Name  Definition              Value          Derivative Info.                !
 --------------------------------------------------------------------------------
 ! R1    R(1,2)                  0.9109         estimate D2E/DX2                !
 ! R2    R(1,3)                  0.9109         estimate D2E/DX2                !
 ! A1    A(2,1,3)              112.7717         estimate D2E/DX2                !
 --------------------------------------------------------------------------------
 Trust Radius=3.00D-01 FncErr=1.00D-07 GrdErr=1.00D-07 EigMax=2.50D+02 EigMin=1.00D-04
 Number of steps in this run=     20 maximum allowed number of steps=    100.
 GradGradGradGradGradGradGradGradGradGradGradGradGradGradGradGradGradGrad

 Leave Link  103 at Sat Aug  2 15:35:54 2025, MaxMem= 12348030976 cpu:               0.1 elap:               0.0
 (Enter /home/hhratchian/gaussian/gdv-20250101-j30+/gdv/l202.exe)
                          Input orientation:                          
 ---------------------------------------------------------------------
 Center     Atomic      Atomic             Coordinates (Angstroms)
 Number     Number       Type             X           Y           Z
 ---------------------------------------------------------------------
      1          8           0       -0.000000   -0.000000    0.000000
      2          1           0        0.758602    0.000000    0.504284
      3          1           0       -0.758602   -0.000000    0.504284
 ---------------------------------------------------------------------
                    Distance matrix (angstroms):
                    1          2          3
     1  O    0.000000
     2  H    0.910922   0.000000
     3  H    0.910922   1.517204   0.000000
 Stoichiometry    H2O
 Framework group  C2V[C2(O),SGV(H2)]
 Deg. of freedom     2
 Full point group                 C2V     NOp   4
 RotChk:  IX=0 Diff= 6.38D-16
 Largest Abelian subgroup         C2V     NOp   4
 Largest concise Abelian subgroup C2      NOp   2
                         Standard orientation:                         
 ---------------------------------------------------------------------
 Center     Atomic      Atomic             Coordinates (Angstroms)
 Number     Number       Type             X           Y           Z
 ---------------------------------------------------------------------
      1          8           0       -0.000000   -0.000000    0.100857
      2          1           0       -0.000000    0.758602   -0.403427
      3          1           0       -0.000000   -0.758602   -0.403427
 ---------------------------------------------------------------------
 Rotational constants (GHZ):        1110.1894251         435.6864908         312.8935057
 Leave Link  202 at Sat Aug  2 15:35:54 2025, MaxMem= 12348030976 cpu:               1.5 elap:               0.0
 (Enter /home/hhratchian/gaussian/gdv-20250101-j30+/gdv/local/l301.exe)
 Basis read from chk: "H2O_HF_631pGdp.chk" (6D, 7F)
 No pseudopotential information found on chk file.
 There are    14 symmetry adapted cartesian basis functions of A1  symmetry.
 There are     2 symmetry adapted cartesian basis functions of A2  symmetry.
 There are     5 symmetry adapted cartesian basis functions of B1  symmetry.
 There are     8 symmetry adapted cartesian basis functions of B2  symmetry.
 There are    14 symmetry adapted basis functions of A1  symmetry.
 There are     2 symmetry adapted basis functions of A2  symmetry.
 There are     5 symmetry adapted basis functions of B1  symmetry.
 There are     8 symmetry adapted basis functions of B2  symmetry.
    29 basis functions,    46 primitive gaussians,    29 cartesian basis functions
     5 alpha electrons        5 beta electrons
       nuclear repulsion energy         9.6435792538 Hartrees.
 IExCor=         0 DFT=F Ex=HF Corr=None N6=None ScaHFX=  1.000000
 ScaDFX=  1.000000  1.000000  1.000000  1.000000  1.000000  0.000000
 ScaDFX=  0.000000  0.000000  0.000000  0.000000  0.000000  0.000000
 Grid=SuperFine IRanWt=     -1 IRanGd=            0 ICorTp=0 IEDCtl=  2004
 NAtoms=    3 NActive=    3 NUniq=    2 SFac= 2.25D+00 NAtFMM=   60 NAOKFM=F Big=F
 Integral buffers will be    131072 words long.
 Raffenetti 1 integral format.
 Two-electron integral symmetry is turned on.
 No density basis found on file 200724.
 Leave Link  301 at Sat Aug  2 15:35:54 2025, MaxMem= 12348030976 cpu:               1.2 elap:               0.1
 (Enter /home/hhratchian/gaussian/gdv-20250101-j30+/gdv/l302.exe)
 NPDir=0 NMtPBC=     1 NCelOv=     1 NCel=       1 NClECP=     1 NCelD=      1
         NCelK=      1 NCelE2=     1 NClLst=     1 CellRange=     0.0.
 One-electron integrals computed using PRISM.
 One-electron integral symmetry used in STVInt
 NBasis=    29 RedAO= T EigKep=  1.62D-02  NBF=    14     2     5     8
 NBsUse=    29 1.00D-06 EigRej= -1.00D+00 NBFU=    14     2     5     8
 Leave Link  302 at Sat Aug  2 15:35:54 2025, MaxMem= 12348030976 cpu:               3.8 elap:               0.1
 (Enter /home/hhratchian/gaussian/gdv-20250101-j30+/gdv/l303.exe)
 DipDrv:  MaxL=1.
 Leave Link  303 at Sat Aug  2 15:35:54 2025, MaxMem= 12348030976 cpu:               2.4 elap:               0.1
 (Enter /home/hhratchian/gaussian/gdv-20250101-j30+/gdv/l401.exe)
 Initial guess from the checkpoint file:  "H2O_HF_631pGdp.chk"
 B after Tr=    -0.000000    0.000000    0.000000
         Rot=    1.000000    0.000000    0.000000   -0.000000 Ang=   0.00 deg.
 AO Guess basis will be translated and rotated to current coordinates.
 JPrj=2 DoOrth=T DoCkMO=T.
 Initial guess orbital symmetries:
       Occupied  (A1) (A1) (B2) (A1) (B1)
       Virtual   (A1) (B2) (A1) (B1) (B2) (A1) (B2) (A1) (B2) (A1)
                 (B1) (A1) (A2) (A1) (B1) (B2) (A1) (B1) (B2) (A2)
                 (A1) (A1) (B2) (A1)
 The electronic state of the initial guess is 1-A1.
 Leave Link  401 at Sat Aug  2 15:35:54 2025, MaxMem= 12348030976 cpu:               0.6 elap:               0.1
 (Enter /home/hhratchian/gaussian/gdv-20250101-j30+/gdv/local/l502.exe)
 Keep R1 ints in memory in symmetry-blocked form, NReq=11605441.
 FoFCou: FMM=F IPFlag=           0 FMFlag=           0 FMFlg1=           0
         NFxFlg=           0 DoJE=F BraDBF=F KetDBF=F FulRan=T
         wScrn=  0.000000 ICntrl=       600 IOpCl=  0 I1Cent=           0 NGrid=           0
         NMat0=    1 NMatS0=    435 NMatT0=    0 NMatD0=    1 NMtDS0=    0 NMtDT0=    0
 Petite list used in FoFCou.
 Closed shell SCF:
 Using DIIS extrapolation, IDIIS=    10.
 NGot= 12348030976 LenX= 12347998860 LenY= 12347997578
 Requested convergence on RMS density matrix=1.00D-08 within 128 cycles.
 Requested convergence on MAX density matrix=1.00D-06.
 Requested convergence on             energy=1.00D-06.
 Level shift goal  0.100 maximum shift  0.100.
 No special actions if energy rises.
 Dynamic level shift is on during FON iterations.
 
  Hrant - CycOpn.
 

 Cycle   1  Pass 1  IDiag  1:
 E= -76.0282531423928    
 DIIS: error= 6.55D-10 at cycle   1 NSaved=   1.
 NSaved= 1 IEnMin= 1 EnMin= -76.0282531423928     IErMin= 1 ErrMin= 6.55D-10
 ErrMax= 6.55D-10  0.00D+00 EMaxC= 1.00D+00 BMatC= 6.05D-18 BMatP= 6.05D-18
 Rises=F IDIUse=1 WtCom= 1.00D+00 WtEn= 0.00D+00
 Coeff-Com:  0.100D+01
 Coeff:      0.100D+01
 Gap=     0.660 Goal=     0.100 Shift=    0.000
 RMSDP=1.80D-10 MaxDP=1.45D-09              OVMax= 2.32D-09

 SCF Done:  E(RHF) =  -76.0282531424     A.U. after    1 cycles
            NFock=  1  Conv=0.18D-09     -V/T= 2.0013
 KE=          75.927601 PE=        -199.678156 EE=          38.078723
 Leave Link  502 at Sat Aug  2 15:35:54 2025, MaxMem= 12348030976 cpu:               4.9 elap:               0.2
 (Enter /home/hhratchian/gaussian/gdv-20250101-j30+/gdv/l601.exe)
 Copying SCF densities to generalized density rwf, IOpCl= 0 IROHF=0.
 
 **********************************************************************
 
               Population analysis using the SCF Density.
 
 **********************************************************************
 
 Orbital symmetries:
       Occupied  (A1) (A1) (B2) (A1) (B1)
       Virtual   (A1) (B2) (A1) (B1) (B2) (A1) (B2) (A1) (B2) (A1)
                 (B1) (A1) (A2) (A1) (B1) (B2) (A1) (B1) (B2) (A2)
                 (A1) (A1) (B2) (A1)
 The electronic state is 1-A1.
 Alpha  occ. eigenvalues --      -20.57117      -1.37562      -0.76279      -0.57584      -0.51114
 Alpha virt. eigenvalues --        0.14859       0.21388       0.25049       0.25179       0.38418
 Alpha virt. eigenvalues --        0.39156       1.23960       1.29927       1.32180       1.36543
 Alpha virt. eigenvalues --        1.40556       1.45137       1.77947       1.87019       1.94401
 Alpha virt. eigenvalues --        2.55869       2.62741       2.98467       2.99603       3.07844
 Alpha virt. eigenvalues --        3.47502       3.85283       3.97383       4.41763
          Condensed to atoms (all electrons):
               1          2          3
     1  O    8.100608   0.317236   0.317236
     2  H    0.317236   0.340138  -0.024914
     3  H    0.317236  -0.024914   0.340138
 Mulliken charges:
               1
     1  O   -0.735080
     2  H    0.367540
     3  H    0.367540
 Sum of Mulliken charges=  -0.00000
 Mulliken charges with hydrogens summed into heavy atoms:
               1
     1  O   -0.000000
 Electronic spatial extent (au):  <R**2>=             18.9259
 Charge=              0.0000 electrons
 Dipole moment (field-independent basis, Debye):
    X=             -0.0000    Y=              0.0000    Z=             -2.0954  Tot=              2.0954
 Quadrupole moment (field-independent basis, Debye-Ang):
   XX=             -7.5216   YY=             -3.9776   ZZ=             -6.4742
   XY=              0.0000   XZ=              0.0000   YZ=             -0.0000
 Traceless Quadrupole moment (field-independent basis, Debye-Ang):
   XX=             -1.5305   YY=              2.0135   ZZ=             -0.4830
   XY=              0.0000   XZ=              0.0000   YZ=             -0.0000
 Octapole moment (field-independent basis, Debye-Ang**2):
  XXX=              0.0000  YYY=              0.0000  ZZZ=             -1.5234  XYY=             -0.0000
  XXY=             -0.0000  XXZ=             -0.4554  XZZ=              0.0000  YZZ=              0.0000
  YYZ=             -1.3581  XYZ=             -0.0000
 Hexadecapole moment (field-independent basis, Debye-Ang**3):
 XXXX=             -6.6480 YYYY=             -5.1982 ZZZZ=             -6.8891 XXXY=             -0.0000
 XXXZ=             -0.0000 YYYX=              0.0000 YYYZ=              0.0000 ZZZX=             -0.0000
 ZZZY=              0.0000 XXYY=             -2.2810 XXZZ=             -2.2889 YYZZ=             -1.8143
 XXYZ=             -0.0000 YYXZ=              0.0000 ZZXY=              0.0000
 N-N=           9.643579 E-N=        -199.678156  KE=          75.927601
 Symmetry A1   KE=          67.835045
 Symmetry A2   KE=           0.000000
 Symmetry B1   KE=           4.443984
 Symmetry B2   KE=           3.648572
 No NMR shielding tensors so no spin-rotation constants.
 Leave Link  601 at Sat Aug  2 15:35:54 2025, MaxMem= 12348030976 cpu:               3.7 elap:               0.1
 (Enter /home/hhratchian/gaussian/gdv-20250101-j30+/gdv/l701.exe)
 ... and contract with generalized density number  0.
 Compute integral first derivatives.
 Leave Link  701 at Sat Aug  2 15:35:55 2025, MaxMem= 12348030976 cpu:               4.5 elap:               0.1
 (Enter /home/hhratchian/gaussian/gdv-20250101-j30+/gdv/l702.exe)
 L702 exits ... SP integral derivatives will be done elsewhere.
 Leave Link  702 at Sat Aug  2 15:35:55 2025, MaxMem= 12348030976 cpu:               1.1 elap:               0.0
 (Enter /home/hhratchian/gaussian/gdv-20250101-j30+/gdv/l703.exe)
 Integral derivatives from FoFJK, PRISM(SPDF).
 Compute integral first derivatives, UseDBF=F ICtDFT=           0.
 Calling FoFJK, ICntrl=      2127 FMM=F ISym2X=1 I1Cent= 0 IOpClX= 0 NMat=1 NMatS=1 NMatT=0.
 FoFJK:  IHMeth= 1 ICntrl=    2127 DoSepK=F KAlg= 0 I1Cent=           0 FoldK=F
 IRaf=         0 NMat=       1 IRICut=       1 DoRegI=T DoRafI=F ISym2E= 1 IDoP0=0 IntGTp=1.
 FoFCou: FMM=F IPFlag=           0 FMFlag=      100000 FMFlg1=         800
         NFxFlg=           0 DoJE=F BraDBF=F KetDBF=F FulRan=T
         wScrn=  0.000000 ICntrl=      2127 IOpCl=  0 I1Cent=           0 NGrid=           0
         NMat0=    1 NMatS0=      1 NMatT0=    0 NMatD0=    1 NMtDS0=    0 NMtDT0=    0
 Petite list used in FoFCou.
 Leave Link  703 at Sat Aug  2 15:35:55 2025, MaxMem= 12348030976 cpu:               5.9 elap:               0.2
 (Enter /home/hhratchian/gaussian/gdv-20250101-j30+/gdv/l716.exe)
 Dipole        =-5.58186438D-17 0.00000000D+00-8.24382661D-01
 ***** Axes restored to original set *****
 -------------------------------------------------------------------
 Center     Atomic                   Forces (Hartrees/Bohr)
 Number     Number              X              Y              Z
 -------------------------------------------------------------------
      1        8          -0.000000000   -0.000000000   -0.056650097
      2        1           0.029260698    0.000000000    0.028325049
      3        1          -0.029260698    0.000000000    0.028325049
 -------------------------------------------------------------------
 Cartesian Forces:  Max     0.056650097 RMS     0.026928356
 Leave Link  716 at Sat Aug  2 15:35:55 2025, MaxMem= 12348030976 cpu:               0.1 elap:               0.0
 (Enter /home/hhratchian/gaussian/gdv-20250101-j30+/gdv/l103.exe)

 GradGradGradGradGradGradGradGradGradGradGradGradGradGradGradGradGradGrad
 Berny optimization.
 FormGI is forming the generalized inverse of G from B-inverse, IUseBI=4.
 NTrRot=    -1 NTRed=     3 NAtoms=     3 NSkip=     0 NRank=     3 IsLin=F EigSml=8.5452D-01
 Internal  Forces:  Max     0.040048526 RMS     0.033514157
 Search for a local minimum.
 Step number   1 out of a maximum of   20
 All quantities printed in internal units (Hartrees-Bohrs-Radians)
 RMS Force = .33514D-01 SwitMx=.10000D-02 MixMth= 1
 Mixed Optimization -- RFO/linear search
 Second derivative matrix not updated -- first step.
 The second derivative matrix:
                          R1        R2        A1
           R1           0.67525
           R2           0.00000   0.67525
           A1           0.00000   0.00000   0.16000
 ITU=  0
     Eigenvalues ---    0.16000   0.67525   0.67525
 RFO step:  Lambda=-5.68751813D-03 EMin= 1.60000000D-01
 Linear search not attempted -- first point.
 GrdOpt: GIC=T ITstSp=  0 NP=   1 DidLin=F DidDIS=F IDoGRo=0 IDoRot=0
         ISwap=1 XLin= 0.000 DXMaxT= 0.300
 Iteration  1 RMS(Cart)=  0.02454519 RMS(Int)=  0.00179023
 Iteration  2 RMS(Cart)=  0.00114260 RMS(Int)=  0.00000157
 Iteration  3 RMS(Cart)=  0.00000060 RMS(Int)=  0.00000000
 ClnCor:  largest displacement from symmetrization is 6.28D-16 for atom     3.
 Variable       Old X    -DE/DX   Delta X   Delta X   Delta X     New X
                                 (Linear)    (Quad)   (Total)
    R1        1.72139   0.04005   0.00000   0.05881   0.05881   1.78021
    R2        1.72139   0.04005   0.00000   0.05881   0.05881   1.78021
    A1        1.96824  -0.01272   0.00000  -0.07678  -0.07678   1.89146
         Item               Value     Threshold  Converged?
 Maximum Force            0.040049     0.000450     NO 
 RMS     Force            0.033514     0.000300     NO 
 Maximum Displacement     0.059155     0.001800     NO 
 RMS     Displacement     0.042628     0.001200     NO 
 Predicted change in Energy=-2.880196D-03
 Lowest energy point so far.  Saving SCF results.
 GradGradGradGradGradGradGradGradGradGradGradGradGradGradGradGradGradGrad

 Leave Link  103 at Sat Aug  2 15:35:55 2025, MaxMem= 12348030976 cpu:               0.3 elap:               0.0
 (Enter /home/hhratchian/gaussian/gdv-20250101-j30+/gdv/l202.exe)
                          Input orientation:                          
 ---------------------------------------------------------------------
 Center     Atomic      Atomic             Coordinates (Angstroms)
 Number     Number       Type             X           Y           Z
 ---------------------------------------------------------------------
      1          8           0       -0.000000    0.000000   -0.031303
      2          1           0        0.763927    0.000000    0.519936
      3          1           0       -0.763927   -0.000000    0.519936
 ---------------------------------------------------------------------
                    Distance matrix (angstroms):
                    1          2          3
     1  O    0.000000
     2  H    0.942045   0.000000
     3  H    0.942045   1.527855   0.000000
 Stoichiometry    H2O
 Framework group  C2V[C2(O),SGV(H2)]
 Deg. of freedom     2
 Full point group                 C2V     NOp   4
 RotChk:  IX=0 Diff= 6.53D-16
 Largest Abelian subgroup         C2V     NOp   4
 Largest concise Abelian subgroup C2      NOp   2
                         Standard orientation:                         
 ---------------------------------------------------------------------
 Center     Atomic      Atomic             Coordinates (Angstroms)
 Number     Number       Type             X           Y           Z
 ---------------------------------------------------------------------
      1          8           0        0.000000   -0.000000    0.110248
      2          1           0        0.000000    0.763927   -0.440991
      3          1           0       -0.000000   -0.763927   -0.440991
 ---------------------------------------------------------------------
 Rotational constants (GHZ):         929.1114135         429.6334023         293.7838607
 Leave Link  202 at Sat Aug  2 15:35:55 2025, MaxMem= 12348030976 cpu:               0.5 elap:               0.0
 (Enter /home/hhratchian/gaussian/gdv-20250101-j30+/gdv/local/l301.exe)
 Basis read from rwf:  (6D, 7F)
 No pseudopotential information found on rwf file.
 There are    14 symmetry adapted cartesian basis functions of A1  symmetry.
 There are     2 symmetry adapted cartesian basis functions of A2  symmetry.
 There are     5 symmetry adapted cartesian basis functions of B1  symmetry.
 There are     8 symmetry adapted cartesian basis functions of B2  symmetry.
 There are    14 symmetry adapted basis functions of A1  symmetry.
 There are     2 symmetry adapted basis functions of A2  symmetry.
 There are     5 symmetry adapted basis functions of B1  symmetry.
 There are     8 symmetry adapted basis functions of B2  symmetry.
    29 basis functions,    46 primitive gaussians,    29 cartesian basis functions
     5 alpha electrons        5 beta electrons
       nuclear repulsion energy         9.3340698268 Hartrees.
 IExCor=         0 DFT=F Ex=HF Corr=None N6=None ScaHFX=  1.000000
 ScaDFX=  1.000000  1.000000  1.000000  1.000000  1.000000  0.000000
 ScaDFX=  0.000000  0.000000  0.000000  0.000000  0.000000  0.000000
 Grid=SuperFine IRanWt=     -1 IRanGd=            0 ICorTp=0 IEDCtl=  2004
 NAtoms=    3 NActive=    3 NUniq=    2 SFac= 2.25D+00 NAtFMM=   60 NAOKFM=F Big=F
 Integral buffers will be    131072 words long.
 Raffenetti 1 integral format.
 Two-electron integral symmetry is turned on.
 No density basis found on file    724.
 Leave Link  301 at Sat Aug  2 15:35:55 2025, MaxMem= 12348030976 cpu:               0.1 elap:               0.0
 (Enter /home/hhratchian/gaussian/gdv-20250101-j30+/gdv/l302.exe)
 NPDir=0 NMtPBC=     1 NCelOv=     1 NCel=       1 NClECP=     1 NCelD=      1
         NCelK=      1 NCelE2=     1 NClLst=     1 CellRange=     0.0.
 One-electron integrals computed using PRISM.
 One-electron integral symmetry used in STVInt
 NBasis=    29 RedAO= T EigKep=  1.69D-02  NBF=    14     2     5     8
 NBsUse=    29 1.00D-06 EigRej= -1.00D+00 NBFU=    14     2     5     8
 Leave Link  302 at Sat Aug  2 15:35:55 2025, MaxMem= 12348030976 cpu:               4.0 elap:               0.1
 (Enter /home/hhratchian/gaussian/gdv-20250101-j30+/gdv/l303.exe)
 DipDrv:  MaxL=1.
 Leave Link  303 at Sat Aug  2 15:35:55 2025, MaxMem= 12348030976 cpu:               0.3 elap:               0.0
 (Enter /home/hhratchian/gaussian/gdv-20250101-j30+/gdv/l401.exe)
 Initial guess from the checkpoint file:  "H2O_HF_631pGdp.chk"
 B after Tr=    -0.000000   -0.000000   -0.000000
         Rot=    1.000000   -0.000000   -0.000000    0.000000 Ang=   0.00 deg.
 AO Guess basis will be translated and rotated to current coordinates.
 JPrj=2 DoOrth=T DoCkMO=T.
 Initial guess orbital symmetries:
       Occupied  (A1) (A1) (B2) (A1) (B1)
       Virtual   (A1) (B2) (A1) (B1) (B2) (A1) (B2) (A1) (B2) (A1)
                 (B1) (A1) (A2) (A1) (B1) (B2) (A1) (B1) (B2) (A2)
                 (A1) (A1) (B2) (A1)
 The electronic state of the initial guess is 1-A1.
 Generating alternative initial guess.
 ExpMin= 8.45D-02 ExpMax= 5.48D+03 ExpMxC= 8.25D+02 IAcc=3 Grid=SuperFine AccDes= 0.00D+00
 Harris functional with IExCor= 2005 and Grid=SuperFine diagonalized for initial guess.
 HarFok:  IExCor=    2005 AccDes= 0.00D+00 Grid=SuperFine IDoV= 1 UseB2=F ITyADJ=14 ICtDFT=  3500011
 FoFCou: FMM=F IPFlag=           0 FMFlag=      100000 FMFlg1=           0
         NFxFlg=           0 DoJE=T BraDBF=F KetDBF=T FulRan=T
         wScrn=  0.000000 ICntrl=       500 IOpCl=  0 I1Cent=   200000004 NGrid=           0
         NMat0=    1 NMatS0=      1 NMatT0=    0 NMatD0=    1 NMtDS0=    0 NMtDT0=    0
 Petite list used in FoFCou.
 Harris En= -76.1183410362730    
 Leave Link  401 at Sat Aug  2 15:35:55 2025, MaxMem= 12348030976 cpu:               7.2 elap:               0.2
 (Enter /home/hhratchian/gaussian/gdv-20250101-j30+/gdv/local/l502.exe)
 Keep R1 ints in memory in symmetry-blocked form, NReq=11605441.
 FoFCou: FMM=F IPFlag=           0 FMFlag=           0 FMFlg1=           0
         NFxFlg=           0 DoJE=F BraDBF=F KetDBF=F FulRan=T
         wScrn=  0.000000 ICntrl=       600 IOpCl=  0 I1Cent=           0 NGrid=           0
         NMat0=    1 NMatS0=    435 NMatT0=    0 NMatD0=    1 NMtDS0=    0 NMtDT0=    0
 Petite list used in FoFCou.
 Closed shell SCF:
 Using DIIS extrapolation, IDIIS=    10.
 NGot= 12348030976 LenX= 12347998860 LenY= 12347997578
 Requested convergence on RMS density matrix=1.00D-08 within 128 cycles.
 Requested convergence on MAX density matrix=1.00D-06.
 Requested convergence on             energy=1.00D-06.
 Level shift goal  0.100 maximum shift  0.100.
 No special actions if energy rises.
 Dynamic level shift is on during FON iterations.
 
  Hrant - CycOpn.
 

 Cycle   1  Pass 1  IDiag  1:
 E= -76.0302086589015    
 DIIS: error= 5.81D-03 at cycle   1 NSaved=   1.
 NSaved= 1 IEnMin= 1 EnMin= -76.0302086589015     IErMin= 1 ErrMin= 5.81D-03
 ErrMax= 5.81D-03  0.00D+00 EMaxC= 1.00D+00 BMatC= 4.46D-04 BMatP= 4.46D-04
 Rises=F IDIUse=1 WtCom= 1.00D+00 WtEn= 0.00D+00
 Coeff-Com:  0.100D+01
 Coeff:      0.100D+01
 Gap=     0.652 Goal=     0.100 Shift=    0.000
 T=  511. Gap= 0.649 NK=0 IS=    6 IE=   29 IFin=    5
          NO(<0.9)=   0  NV(>0.1)=   0      5.00e < EF      0.00e >EF  Err=0.0D+00
 GapD=    0.652 DampG=2.000 DampE=1.000 DampFc=2.0000 IDamp=-1.
 RMSDP=1.05D-03 MaxDP=6.38D-03              OVMax= 1.11D-02

 Cycle   2  Pass 1  IDiag  1:
 E= -76.0310849392373     Delta-E=       -0.000876280336 Rises=F Damp=F AM=F Ri=F Fa=F
 DIIS: error= 1.94D-03 at cycle   2 NSaved=   2.
 NSaved= 2 IEnMin= 2 EnMin= -76.0310849392373     IErMin= 2 ErrMin= 1.94D-03
 ErrMax= 1.94D-03  0.00D+00 EMaxC= 1.00D+00 BMatC= 5.12D-05 BMatP= 4.46D-04
 Rises=F IDIUse=1 WtCom= 1.00D+00 WtEn= 0.00D+00
 Coeff-Com:  0.396D-01 0.960D+00
 Coeff:      0.396D-01 0.960D+00
 Gap=     0.658 Goal=     0.100 Shift=    0.000
 T=  360. Gap= 0.658 NK=0 IS=    6 IE=   29 IFin=    5
          NO(<0.9)=   0  NV(>0.1)=   0      5.00e < EF      0.00e >EF  Err=0.0D+00
 GapD=    0.658 DampG=2.000 DampE=1.000 DampFc=2.0000 IDamp=-1.
 RMSDP=2.99D-04 MaxDP=3.54D-03 DE=-8.76D-04 OVMax= 3.61D-03

 Cycle   3  Pass 1  IDiag  1:
 E= -76.0311677540452     Delta-E=       -0.000082814808 Rises=F Damp=F AM=F Ri=F Fa=F
 DIIS: error= 8.03D-04 at cycle   3 NSaved=   3.
 NSaved= 3 IEnMin= 3 EnMin= -76.0311677540452     IErMin= 3 ErrMin= 8.03D-04
 ErrMax= 8.03D-04  0.00D+00 EMaxC= 1.00D+00 BMatC= 1.03D-05 BMatP= 5.12D-05
 Rises=F IDIUse=1 WtCom= 1.00D+00 WtEn= 0.00D+00
 Coeff-Com: -0.882D-01 0.270D+00 0.818D+00
 Coeff:     -0.882D-01 0.270D+00 0.818D+00
 Gap=     0.656 Goal=     0.100 Shift=    0.000
 RMSDP=1.33D-04 MaxDP=1.28D-03 DE=-8.28D-05 OVMax= 1.95D-03

 Cycle   4  Pass 1  IDiag  1:
 E= -76.0311885769645     Delta-E=       -0.000020822919 Rises=F Damp=F AM=F Ri=F Fa=F
 DIIS: error= 1.87D-04 at cycle   4 NSaved=   4.
 NSaved= 4 IEnMin= 4 EnMin= -76.0311885769645     IErMin= 4 ErrMin= 1.87D-04
 ErrMax= 1.87D-04  0.00D+00 EMaxC= 1.00D+00 BMatC= 2.73D-07 BMatP= 1.03D-05
 Rises=F IDIUse=1 WtCom= 1.00D+00 WtEn= 0.00D+00
 Coeff-Com:  0.176D-01-0.108D+00-0.176D+00 0.127D+01
 Coeff:      0.176D-01-0.108D+00-0.176D+00 0.127D+01
 Gap=     0.656 Goal=     0.100 Shift=    0.000
 RMSDP=5.31D-05 MaxDP=3.73D-04 DE=-2.08D-05 OVMax= 8.24D-04

 Cycle   5  Pass 1  IDiag  1:
 E= -76.0311900966388     Delta-E=       -0.000001519674 Rises=F Damp=F AM=F Ri=F Fa=F
 DIIS: error= 4.42D-05 at cycle   5 NSaved=   5.
 NSaved= 5 IEnMin= 5 EnMin= -76.0311900966388     IErMin= 5 ErrMin= 4.42D-05
 ErrMax= 4.42D-05  0.00D+00 EMaxC= 1.00D+00 BMatC= 1.27D-08 BMatP= 2.73D-07
 Rises=F IDIUse=1 WtCom= 1.00D+00 WtEn= 0.00D+00
 Coeff-Com:  0.144D-02 0.239D-02-0.151D-01-0.208D+00 0.122D+01
 Coeff:      0.144D-02 0.239D-02-0.151D-01-0.208D+00 0.122D+01
 Gap=     0.656 Goal=     0.100 Shift=    0.000
 RMSDP=1.30D-05 MaxDP=9.93D-05 DE=-1.52D-06 OVMax= 2.12D-04

 Cycle   6  Pass 1  IDiag  1:
 E= -76.0311901798631     Delta-E=       -0.000000083224 Rises=F Damp=F AM=F Ri=F Fa=F
 DIIS: error= 9.07D-06 at cycle   6 NSaved=   6.
 NSaved= 6 IEnMin= 6 EnMin= -76.0311901798631     IErMin= 6 ErrMin= 9.07D-06
 ErrMax= 9.07D-06  0.00D+00 EMaxC= 1.00D+00 BMatC= 6.00D-10 BMatP= 1.27D-08
 Rises=F IDIUse=1 WtCom= 1.00D+00 WtEn= 0.00D+00
 Coeff-Com: -0.131D-02 0.497D-02 0.129D-01-0.388D-02-0.341D+00 0.133D+01
 Coeff:     -0.131D-02 0.497D-02 0.129D-01-0.388D-02-0.341D+00 0.133D+01
 Gap=     0.656 Goal=     0.100 Shift=    0.000
 RMSDP=2.41D-06 MaxDP=2.62D-05 DE=-8.32D-08 OVMax= 3.97D-05

 Cycle   7  Pass 1  IDiag  1:
 E= -76.0311901833613     Delta-E=       -0.000000003498 Rises=F Damp=F AM=F Ri=F Fa=F
 DIIS: error= 1.50D-06 at cycle   7 NSaved=   7.
 NSaved= 7 IEnMin= 7 EnMin= -76.0311901833613     IErMin= 7 ErrMin= 1.50D-06
 ErrMax= 1.50D-06  0.00D+00 EMaxC= 1.00D+00 BMatC= 1.64D-11 BMatP= 6.00D-10
 Rises=F IDIUse=1 WtCom= 1.00D+00 WtEn= 0.00D+00
 Coeff-Com:  0.433D-03-0.175D-02-0.434D-02 0.488D-02 0.104D+00-0.514D+00
 Coeff-Com:  0.141D+01
 Coeff:      0.433D-03-0.175D-02-0.434D-02 0.488D-02 0.104D+00-0.514D+00
 Coeff:      0.141D+01
 Gap=     0.656 Goal=     0.100 Shift=    0.000
 RMSDP=3.58D-07 MaxDP=4.34D-06 DE=-3.50D-09 OVMax= 6.68D-06

 Cycle   8  Pass 1  IDiag  1:
 E= -76.0311901834500     Delta-E=       -0.000000000089 Rises=F Damp=F AM=F Ri=F Fa=F
 DIIS: error= 1.44D-07 at cycle   8 NSaved=   8.
 NSaved= 8 IEnMin= 8 EnMin= -76.0311901834500     IErMin= 8 ErrMin= 1.44D-07
 ErrMax= 1.44D-07  0.00D+00 EMaxC= 1.00D+00 BMatC= 1.99D-13 BMatP= 1.64D-11
 Rises=F IDIUse=1 WtCom= 1.00D+00 WtEn= 0.00D+00
 Coeff-Com: -0.793D-04 0.322D-03 0.836D-03-0.110D-02-0.188D-01 0.102D+00
 Coeff-Com: -0.355D+00 0.127D+01
 Coeff:     -0.793D-04 0.322D-03 0.836D-03-0.110D-02-0.188D-01 0.102D+00
 Coeff:     -0.355D+00 0.127D+01
 Gap=     0.656 Goal=     0.100 Shift=    0.000
 RMSDP=5.81D-08 MaxDP=5.56D-07 DE=-8.87D-11 OVMax= 5.94D-07

 Cycle   9  Pass 1  IDiag  1:
 E= -76.0311901834511     Delta-E=       -0.000000000001 Rises=F Damp=F AM=F Ri=F Fa=F
 DIIS: error= 1.08D-08 at cycle   9 NSaved=   9.
 NSaved= 9 IEnMin= 9 EnMin= -76.0311901834511     IErMin= 9 ErrMin= 1.08D-08
 ErrMax= 1.08D-08  0.00D+00 EMaxC= 1.00D+00 BMatC= 1.80D-15 BMatP= 1.99D-13
 Rises=F IDIUse=1 WtCom= 1.00D+00 WtEn= 0.00D+00
 Coeff-Com:  0.112D-04-0.461D-04-0.119D-03 0.158D-03 0.268D-02-0.149D-01
 Coeff-Com:  0.560D-01-0.255D+00 0.121D+01
 Coeff:      0.112D-04-0.461D-04-0.119D-03 0.158D-03 0.268D-02-0.149D-01
 Coeff:      0.560D-01-0.255D+00 0.121D+01
 Gap=     0.656 Goal=     0.100 Shift=    0.000
 RMSDP=6.67D-09 MaxDP=4.22D-08 DE=-1.05D-12 OVMax= 3.91D-08

 SCF Done:  E(RHF) =  -76.0311901835     A.U. after    9 cycles
            NFock=  9  Conv=0.67D-08     -V/T= 2.0031
 KE=          75.799250 PE=        -199.001357 EE=          37.836847
 Leave Link  502 at Sat Aug  2 15:35:56 2025, MaxMem= 12348030976 cpu:               3.8 elap:               0.1
 (Enter /home/hhratchian/gaussian/gdv-20250101-j30+/gdv/l701.exe)
 ... and contract with generalized density number  0.
 Compute integral first derivatives.
 Leave Link  701 at Sat Aug  2 15:35:56 2025, MaxMem= 12348030976 cpu:               5.6 elap:               0.2
 (Enter /home/hhratchian/gaussian/gdv-20250101-j30+/gdv/l702.exe)
 L702 exits ... SP integral derivatives will be done elsewhere.
 Leave Link  702 at Sat Aug  2 15:35:56 2025, MaxMem= 12348030976 cpu:               0.1 elap:               0.0
 (Enter /home/hhratchian/gaussian/gdv-20250101-j30+/gdv/l703.exe)
 Integral derivatives from FoFJK, PRISM(SPDF).
 Compute integral first derivatives, UseDBF=F ICtDFT=           0.
 Calling FoFJK, ICntrl=      2127 FMM=F ISym2X=1 I1Cent= 0 IOpClX= 0 NMat=1 NMatS=1 NMatT=0.
 FoFJK:  IHMeth= 1 ICntrl=    2127 DoSepK=F KAlg= 0 I1Cent=           0 FoldK=F
 IRaf=         0 NMat=       1 IRICut=       1 DoRegI=T DoRafI=F ISym2E= 1 IDoP0=0 IntGTp=1.
 FoFCou: FMM=F IPFlag=           0 FMFlag=      100000 FMFlg1=         800
         NFxFlg=           0 DoJE=F BraDBF=F KetDBF=F FulRan=T
         wScrn=  0.000000 ICntrl=      2127 IOpCl=  0 I1Cent=           0 NGrid=           0
         NMat0=    1 NMatS0=      1 NMatT0=    0 NMatD0=    1 NMtDS0=    0 NMtDT0=    0
 Petite list used in FoFCou.
 Leave Link  703 at Sat Aug  2 15:35:56 2025, MaxMem= 12348030976 cpu:               4.8 elap:               0.1
 (Enter /home/hhratchian/gaussian/gdv-20250101-j30+/gdv/l716.exe)
 Dipole        =-5.74019990D-17 0.00000000D+00-8.69431363D-01
 ***** Axes restored to original set *****
 -------------------------------------------------------------------
 Center     Atomic                   Forces (Hartrees/Bohr)
 Number     Number              X              Y              Z
 -------------------------------------------------------------------
      1        8          -0.000000000   -0.000000000   -0.003977168
      2        1          -0.000672895    0.000000000    0.001988584
      3        1           0.000672895    0.000000000    0.001988584
 -------------------------------------------------------------------
 Cartesian Forces:  Max     0.003977168 RMS     0.001654367
 Leave Link  716 at Sat Aug  2 15:35:56 2025, MaxMem= 12348030976 cpu:               0.1 elap:               0.0
 (Enter /home/hhratchian/gaussian/gdv-20250101-j30+/gdv/l103.exe)

 GradGradGradGradGradGradGradGradGradGradGradGradGradGradGradGradGradGrad
 Berny optimization.
 Using GEDIIS/GDIIS optimizer.
 FormGI is forming the generalized inverse of G from B-inverse, IUseBI=4.
 NTrRot=    -1 NTRed=     3 NAtoms=     3 NSkip=     0 NRank=     3 IsLin=F EigSml=8.1078D-01
 Internal  Forces:  Max     0.003571695 RMS     0.002122950
 Search for a local minimum.
 Step number   2 out of a maximum of   20
 All quantities printed in internal units (Hartrees-Bohrs-Radians)
 RMS Force = .21229D-02 SwitMx=.10000D-02 MixMth= 1
 Mixed Optimization -- RFO/linear search
 Update second derivatives using D2CorX and points    1    2
 DE= -2.94D-03 DEPred=-2.88D-03 R= 1.02D+00
 TightC=F SS=  1.41D+00  RLast= 1.13D-01 DXNew= 5.0454D-01 3.3958D-01
 Trust test= 1.02D+00 RLast= 1.13D-01 DXMaxT set to 3.40D-01
 The second derivative matrix:
                          R1        R2        A1
           R1           0.68546
           R2           0.01021   0.68546
           A1           0.01934   0.01934   0.14880
 ITU=  1  0
 Use linear search instead of GDIIS.
     Eigenvalues ---    0.14743   0.67525   0.69704
 RFO step:  Lambda=-7.37015510D-05 EMin= 1.47432673D-01
 Quartic linear search produced a step of  0.07177.
 GrdOpt: GIC=T ITstSp=  0 NP=   2 DidLin=T DidDIS=F IDoGRo=0 IDoRot=0
         ISwap=1 XLin= 0.072 DXMaxT= 0.340
 Iteration  1 RMS(Cart)=  0.00781731 RMS(Int)=  0.00012321
 Iteration  2 RMS(Cart)=  0.00006642 RMS(Int)=  0.00000000
 Iteration  3 RMS(Cart)=  0.00000000 RMS(Int)=  0.00000000
 ClnCor:  largest displacement from symmetrization is 2.22D-16 for atom     3.
 Variable       Old X    -DE/DX   Delta X   Delta X   Delta X     New X
                                 (Linear)    (Quad)   (Total)
    R1        1.78021   0.00062   0.00422  -0.00237   0.00185   1.78206
    R2        1.78021   0.00062   0.00422  -0.00237   0.00185   1.78206
    A1        1.89146  -0.00357  -0.00551  -0.02043  -0.02594   1.86552
         Item               Value     Threshold  Converged?
 Maximum Force            0.003572     0.000450     NO 
 RMS     Force            0.002123     0.000300     NO 
 Maximum Displacement     0.013158     0.001800     NO 
 RMS     Displacement     0.013598     0.001200     NO 
 Predicted change in Energy=-4.435024D-05
 Lowest energy point so far.  Saving SCF results.
 GradGradGradGradGradGradGradGradGradGradGradGradGradGradGradGradGradGrad

 Leave Link  103 at Sat Aug  2 15:35:56 2025, MaxMem= 12348030976 cpu:               0.7 elap:               0.0
 (Enter /home/hhratchian/gaussian/gdv-20250101-j30+/gdv/l202.exe)
                          Input orientation:                          
 ---------------------------------------------------------------------
 Center     Atomic      Atomic             Coordinates (Angstroms)
 Number     Number       Type             X           Y           Z
 ---------------------------------------------------------------------
      1          8           0       -0.000000    0.000000   -0.038266
      2          1           0        0.757500    0.000000    0.523417
      3          1           0       -0.757500   -0.000000    0.523417
 ---------------------------------------------------------------------
                    Distance matrix (angstroms):
                    1          2          3
     1  O    0.000000
     2  H    0.943024   0.000000
     3  H    0.943024   1.515000   0.000000
 Stoichiometry    H2O
 Framework group  C2V[C2(O),SGV(H2)]
 Deg. of freedom     2
 Full point group                 C2V     NOp   4
 RotChk:  IX=0 Diff= 2.42D-16
 Largest Abelian subgroup         C2V     NOp   4
 Largest concise Abelian subgroup C2      NOp   2
                         Standard orientation:                         
 ---------------------------------------------------------------------
 Center     Atomic      Atomic             Coordinates (Angstroms)
[...]
 ---------------------------------------------------------------------
 Rotational constants (GHZ):         899.7521962         435.6106291         293.5094589
 Leave Link  202 at Sat Aug  2 15:36:03 2025, MaxMem= 12348030976 cpu:               1.5 elap:               0.1
 (Enter /home/hhratchian/gaussian/gdv-20250101-j30+/gdv/local/l301.exe)
 Basis read from chk: "H2O_HF_631pGdp-stab.chk" (6D, 7F)
 No pseudopotential information found on chk file.
 There are    14 symmetry adapted cartesian basis functions of A1  symmetry.
 There are     2 symmetry adapted cartesian basis functions of A2  symmetry.
 There are     5 symmetry adapted cartesian basis functions of B1  symmetry.
 There are     8 symmetry adapted cartesian basis functions of B2  symmetry.
 There are    14 symmetry adapted basis functions of A1  symmetry.
 There are     2 symmetry adapted basis functions of A2  symmetry.
 There are     5 symmetry adapted basis functions of B1  symmetry.
 There are     8 symmetry adapted basis functions of B2  symmetry.
    29 basis functions,    46 primitive gaussians,    29 cartesian basis functions
     5 alpha electrons        5 beta electrons
       nuclear repulsion energy         9.3268269602 Hartrees.
 IExCor=         0 DFT=F Ex=HF Corr=None N6=None ScaHFX=  1.000000
 ScaDFX=  1.000000  1.000000  1.000000  1.000000  1.000000  0.000000
 ScaDFX=  0.000000  0.000000  0.000000  0.000000  0.000000  0.000000
 Grid=UltraFine IRanWt=     -1 IRanGd=            0 ICorTp=0 IEDCtl=  2004
 NAtoms=    3 NActive=    3 NUniq=    2 SFac= 2.25D+00 NAtFMM=   60 NAOKFM=F Big=F
 Integral buffers will be    131072 words long.
 Raffenetti 2 integral format.
 Two-electron integral symmetry is turned on.
 No density basis found on file 200724.
 Leave Link  301 at Sat Aug  2 15:36:03 2025, MaxMem= 12348030976 cpu:               0.1 elap:               0.0
 (Enter /home/hhratchian/gaussian/gdv-20250101-j30+/gdv/l302.exe)
 NPDir=0 NMtPBC=     1 NCelOv=     1 NCel=       1 NClECP=     1 NCelD=      1
         NCelK=      1 NCelE2=     1 NClLst=     1 CellRange=     0.0.
 One-electron integrals computed using PRISM.
 One-electron integral symmetry used in STVInt
 NBasis=    29 RedAO= T EigKep=  1.67D-02  NBF=    14     2     5     8
 NBsUse=    29 1.00D-06 EigRej= -1.00D+00 NBFU=    14     2     5     8
 Leave Link  302 at Sat Aug  2 15:36:03 2025, MaxMem= 12348030976 cpu:               4.3 elap:               0.1
 (Enter /home/hhratchian/gaussian/gdv-20250101-j30+/gdv/l303.exe)
 DipDrv:  MaxL=1.
 Leave Link  303 at Sat Aug  2 15:36:03 2025, MaxMem= 12348030976 cpu:               1.3 elap:               0.1
 (Enter /home/hhratchian/gaussian/gdv-20250101-j30+/gdv/l401.exe)
 Initial guess from the checkpoint file:  "H2O_HF_631pGdp-stab.chk"
 B after Tr=     0.000000    0.000000   -0.000000
         Rot=    1.000000   -0.000000    0.000000   -0.000000 Ang=   0.00 deg.
 AO Guess basis will be translated and rotated to current coordinates.
 JPrj=2 DoOrth=T DoCkMO=T.
 Initial guess orbital symmetries:
       Occupied  (A1) (A1) (B2) (A1) (B1)
       Virtual   (A1) (B2) (A1) (B1) (B2) (A1) (B2) (A1) (B2) (A1)
                 (B1) (A1) (A2) (A1) (B1) (B2) (A1) (B2) (B1) (A2)
                 (A1) (A1) (B2) (A1)
 The electronic state of the initial guess is 1-A1.
 Leave Link  401 at Sat Aug  2 15:36:04 2025, MaxMem= 12348030976 cpu:               1.6 elap:               0.1
 (Enter /home/hhratchian/gaussian/gdv-20250101-j30+/gdv/local/l502.exe)
 Keep R1 ints in memory in symmetry-blocked form, NReq=11605441.
 FoFCou: FMM=F IPFlag=           0 FMFlag=           0 FMFlg1=           0
         NFxFlg=           0 DoJE=F BraDBF=F KetDBF=F FulRan=T
         wScrn=  0.000000 ICntrl=       600 IOpCl=  0 I1Cent=           0 NGrid=           0
         NMat0=    1 NMatS0=    435 NMatT0=    0 NMatD0=    1 NMtDS0=    0 NMtDT0=    0
 Petite list used in FoFCou.
 Closed shell SCF:
 Using DIIS extrapolation, IDIIS=    10.
 NGot= 12348030976 LenX= 12347998860 LenY= 12347997578
 Requested convergence on RMS density matrix=1.00D-08 within 128 cycles.
 Requested convergence on MAX density matrix=1.00D-06.
 Requested convergence on             energy=1.00D-06.
 Level shift goal  0.100 maximum shift  0.100.
 No special actions if energy rises.
 Dynamic level shift is on during FON iterations.
 
  Hrant - CycOpn.
 

 Cycle   1  Pass 1  IDiag  1:
 E= -76.0312305618424    
 DIIS: error= 1.60D-10 at cycle   1 NSaved=   1.
 NSaved= 1 IEnMin= 1 EnMin= -76.0312305618424     IErMin= 1 ErrMin= 1.60D-10
 ErrMax= 1.60D-10  0.00D+00 EMaxC= 1.00D+00 BMatC= 2.01D-19 BMatP= 2.01D-19
 Rises=F IDIUse=1 WtCom= 1.00D+00 WtEn= 0.00D+00
 Coeff-Com:  0.100D+01
 Coeff:      0.100D+01
 Gap=     0.656 Goal=     0.100 Shift=    0.000
 Skip diagonalization as Alpha Fock matrix is already diagonal.
 RMSDP=2.26D-32 MaxDP=2.64D-31              OVMax= 0.00D+00

 SCF Done:  E(RHF) =  -76.0312305618     A.U. after    1 cycles
            NFock=  1  Conv=0.23D-31     -V/T= 2.0031
 KE=          75.797549 PE=        -198.983907 EE=          37.828300
 Leave Link  502 at Sat Aug  2 15:36:04 2025, MaxMem= 12348030976 cpu:               4.2 elap:               0.1
 (Enter /home/hhratchian/gaussian/gdv-20250101-j30+/gdv/l601.exe)
 Copying SCF densities to generalized density rwf, IOpCl= 0 IROHF=0.
 
 **********************************************************************
 
               Population analysis using the SCF Density.
 
 **********************************************************************
 
 Orbital symmetries:
       Occupied  (A1) (A1) (B2) (A1) (B1)
       Virtual   (A1) (B2) (A1) (B1) (B2) (A1) (B2) (A1) (B2) (A1)
                 (B1) (A1) (A2) (A1) (B1) (B2) (A1) (B2) (B1) (A2)
                 (A1) (A1) (B2) (A1)
 The electronic state is 1-A1.
 Alpha  occ. eigenvalues --      -20.57897      -1.36219      -0.73292      -0.58105      -0.50974
 Alpha virt. eigenvalues --        0.14616       0.21852       0.25040       0.25219       0.36301
 Alpha virt. eigenvalues --        0.38949       1.19257       1.28296       1.33525       1.38837
 Alpha virt. eigenvalues --        1.40513       1.45710       1.78560       1.82901       1.92330
 Alpha virt. eigenvalues --        2.56659       2.58896       2.90327       2.98901       2.99997
 Alpha virt. eigenvalues --        3.41049       3.76273       3.93293       4.35410
          Condensed to atoms (all electrons):
               1          2          3
     1  O    8.128009   0.303271   0.303271
     2  H    0.303271   0.354408  -0.024956
     3  H    0.303271  -0.024956   0.354408
 Mulliken charges:
               1
     1  O   -0.734552
     2  H    0.367276
     3  H    0.367276
 Sum of Mulliken charges=  -0.00000
 Mulliken charges with hydrogens summed into heavy atoms:
               1
     1  O   -0.000000
 Electronic spatial extent (au):  <R**2>=             19.3306
 Charge=             -0.0000 electrons
 Dipole moment (field-independent basis, Debye):
    X=             -0.0000    Y=              0.0000    Z=             -2.2339  Tot=              2.2339
 Quadrupole moment (field-independent basis, Debye-Ang):
   XX=             -7.5920   YY=             -4.1319   ZZ=             -6.3357
   XY=              0.0000   XZ=              0.0000   YZ=             -0.0000
 Traceless Quadrupole moment (field-independent basis, Debye-Ang):
   XX=             -1.5721   YY=              1.8880   ZZ=             -0.3158
   XY=              0.0000   XZ=              0.0000   YZ=             -0.0000
 Octapole moment (field-independent basis, Debye-Ang**2):
  XXX=              0.0000  YYY=             -0.0000  ZZZ=             -1.6280  XYY=             -0.0000
  XXY=             -0.0000  XXZ=             -0.4658  XZZ=             -0.0000  YZZ=              0.0000
  YYZ=             -1.4574  XYZ=             -0.0000
 Hexadecapole moment (field-independent basis, Debye-Ang**3):
 XXXX=             -6.7260 YYYY=             -5.5659 ZZZZ=             -7.0855 XXXY=             -0.0000
 XXXZ=             -0.0000 YYYX=              0.0000 YYYZ=              0.0000 ZZZX=             -0.0000
 ZZZY=             -0.0000 XXYY=             -2.3477 XXZZ=             -2.3503 YYZZ=             -1.8004
 XXYZ=             -0.0000 YYXZ=              0.0000 ZZXY=              0.0000
 N-N=           9.326827 E-N=        -198.983907  KE=          75.797549
 Symmetry A1   KE=          67.764220
 Symmetry A2   KE=           0.000000
 Symmetry B1   KE=           4.451953
 Symmetry B2   KE=           3.581376
 No NMR shielding tensors so no spin-rotation constants.
 Leave Link  601 at Sat Aug  2 15:36:04 2025, MaxMem= 12348030976 cpu:               4.7 elap:               0.1
 (Enter /home/hhratchian/gaussian/gdv-20250101-j30+/gdv/l801.exe)
 Range of M.O.s used for correlation:     1    29
 NBasis=    29 NAE=     5 NBE=     5 NFC=     0 NFV=     0
 NROrb=     29 NOA=     5 NOB=     5 NVA=    24 NVB=    24
 Leave Link  801 at Sat Aug  2 15:36:04 2025, MaxMem= 12348030976 cpu:               0.1 elap:               0.0
 (Enter /home/hhratchian/gaussian/gdv-20250101-j30+/gdv/l914.exe)
 RHF ground state
 Doing stability rather than CIS.
 Keep R1 and R2 ints in memory in symmetry-blocked form, NReq=11605788.
 FoFCou: FMM=F IPFlag=           0 FMFlag=           0 FMFlg1=           0
         NFxFlg=           0 DoJE=F BraDBF=F KetDBF=F FulRan=T
         wScrn=  0.000000 ICntrl=       600 IOpCl=  0 I1Cent=           0 NGrid=           0
         NMat0=    1 NMatS0=    435 NMatT0=    0 NMatD0=    1 NMtDS0=    0 NMtDT0=    0
 Petite list used in FoFCou.
 MDV= 12348030976 DFT=F IDoStb=1 Mixed=F DoRPA=F DoScal=F NonHer=F
 Making orbital integer symmetry assigments:
 Orbital symmetries:
       Occupied  (A1) (A1) (B2) (A1) (B1)
       Virtual   (A1) (B2) (A1) (B1) (B2) (A1) (B2) (A1) (B2) (A1)
                 (B1) (A1) (A2) (A1) (B1) (B2) (A1) (B2) (B1) (A2)
                 (A1) (A1) (B2) (A1)
 The electronic state is 1-A1.
    24 initial guesses have been made.
 Convergence on wavefunction:    0.001000000000000
 Davidson Disk Diagonalization:  ConvIn= 1.00D-03 SkipCon=T Conv= 1.00D-03.
 Max sub-space:   480 initial roots:    24 roots to seek:     1 dimension of matrix:          240
 Iteration     1 Dimension    24 NMult     0 NNew     24
 CISAX will form    24 AO SS matrices at one time.
 NMat=    24 NSing=    12 JSym2X= 2.
 New state      1 was old state      2
 Excitation Energies [eV] at current iteration:
 Root      1 :     8.158660156214347
 Root      2 :     9.873789273782723
 Root      3 :    10.042233198332646
 Root      4 :    10.645487460202409
 Root      5 :    10.840151145483082
 Root      6 :    11.354683928528971
 Root      7 :    11.881523422408344
 Root      8 :    11.884569208260169
 Root      9 :    11.980844145326186
 Root     10 :    13.131735190735832
 Root     11 :    13.242736104071131
 Root     12 :    13.923999415961774
 Root     13 :    14.174536078287687
 Root     14 :    14.285736798179526
 Root     15 :    14.448245261134625
 Root     16 :    14.584195137833564
 Root     17 :    14.711635080717951
 Root     18 :    15.174443752929779
 Root     19 :    15.541839969764901
 Root     20 :    15.683907291425641
 Root     21 :    16.403610056908374
 Root     22 :    16.816889427111636
 Root     23 :    18.563809453676082
 Root     24 :    21.591621015030590
 Iteration     2 Dimension    48 NMult    24 NNew     24
 CISAX will form    24 AO SS matrices at one time.
 NMat=    24 NSing=    12 JSym2X= 2.
 Root      1 not converged, maximum delta is    0.051514240064788
 Excitation Energies [eV] at current iteration:
 Root      1 :     7.806921224486202   Change is   -0.351738931728145
 Root      2 :     9.253322227678652   Change is   -0.788910970653994
 Root      3 :     9.750434924176295   Change is   -0.123354349606427
 Root      4 :    10.113037607880010   Change is   -0.532449852322400
 Root      5 :    10.302842639987077   Change is   -0.537308505496006
 Root      6 :    10.462792398982273   Change is   -0.891891529546698
 Root      7 :    11.690990682969733   Change is   -0.190532739438610
 Root      8 :    11.734129594263306   Change is   -0.150439613996863
 Root      9 :    11.760169449897294   Change is   -0.220674695428892
 Root     10 :    12.863561300620184   Change is   -0.379174803450948
 Root     11 :    13.097986204734140   Change is   -0.033748986001691
 Root     12 :    13.411481920381057   Change is   -0.512517495580718
 Root     13 :    13.855188695014695   Change is   -0.729006442818869
 Root     14 :    13.939020034468561   Change is   -0.235516043819127
 Root     15 :    14.185175355900071   Change is   -0.100561442279455
 Root     16 :    14.344992018822055   Change is   -0.103253242312571
 Root     17 :    14.660986924067750   Change is   -0.050648156650200
 Root     18 :    15.093001235298054   Change is   -0.081442517631725
 Root     19 :    15.371284938418723   Change is   -0.170555031346177
 Root     20 :    15.457901495729860   Change is   -0.226005795695780
 Root     21 :    15.674430573329138   Change is   -5.917190441701451
 Root     22 :    16.045169609808994   Change is   -0.358440447099378
 Root     23 :    16.369401892605399   Change is   -0.447487534506238
 Root     24 :    17.412578832826359   Change is   -1.151230620849725
 Iteration     3 Dimension    54 NMult    48 NNew      6
 CISAX will form     6 AO SS matrices at one time.
 NMat=     6 NSing=     3 JSym2X= 2.
 Root      1 not converged, maximum delta is    0.006067377755552
 Excitation Energies [eV] at current iteration:
 Root      1 :     7.802954353023450   Change is   -0.003966871462752
 Root      2 :     8.903953215126680   Change is   -0.349369012551970
 Root      3 :     9.750134499673198   Change is   -0.000300424503098
 Root      4 :    10.083237209289413   Change is   -0.029800398590597
 Root      5 :    11.685482496561992   Change is   -0.005508186407743
 Root      6 :    11.732740288875867   Change is   -0.001389305387440
 Iteration     4 Dimension    60 NMult    54 NNew      6
 CISAX will form     6 AO SS matrices at one time.
 NMat=     6 NSing=     3 JSym2X= 2.
 Root      1 has converged.
 Excitation Energies [eV] at current iteration:
 Root      1 :     7.802941139563533   Change is   -0.000013213459917
 Root      2 :     8.850921624487109   Change is   -0.053031590639572
 Root      3 :     9.750132816375210   Change is   -0.000001683297987
 Root      4 :    10.079982014885632   Change is   -0.003255194403781
 Root      5 :    11.683786109166459   Change is   -0.001696387395533
 Root      6 :    11.723795793866371   Change is   -0.008944495009495
 Convergence achieved on expansion vectors.
 1PDM for each excited state written to RWF  633
 Ground to excited state transition densities written to RWF  633

 ***********************************************************************
 Stability analysis using <AA,BB:AA,BB> singles matrix:
 ***********************************************************************

 Eigenvectors of the stability matrix:
 
 Eigenvector   1:      Triplet-B1   Eigenvalue= 0.2867528  <S**2>=2.000
       5 ->  6         0.64946
       5 -> 11        -0.23465
 The wavefunction is stable under the perturbations considered.
 Leave Link  914 at Sat Aug  2 15:36:04 2025, MaxMem= 12348030976 cpu:               6.8 elap:               0.2
 (Enter /home/hhratchian/gaussian/gdv-20250101-j30+/gdv/l508.exe)
 The wavefunction is already stable.
 Leave Link  508 at Sat Aug  2 15:36:04 2025, MaxMem= 12348030976 cpu:               0.1 elap:               0.0
 (Enter /home/hhratchian/gaussian/gdv-20250101-j30+/gdv/l601.exe)
 Copying SCF densities to generalized density rwf, IOpCl= 0 IROHF=0.
 
 **********************************************************************
 
               Population analysis using the SCF Density.
 
 **********************************************************************
 
 Orbital symmetries:
       Occupied  (A1) (A1) (B2) (A1) (B1)
       Virtual   (A1) (B2) (A1) (B1) (B2) (A1) (B2) (A1) (B2) (A1)
                 (B1) (A1) (A2) (A1) (B1) (B2) (A1) (B2) (B1) (A2)
                 (A1) (A1) (B2) (A1)
 The electronic state is 1-A1.
 Alpha  occ. eigenvalues --      -20.57897      -1.36219      -0.73292      -0.58105      -0.50974
 Alpha virt. eigenvalues --        0.14616       0.21852       0.25040       0.25219       0.36301
 Alpha virt. eigenvalues --        0.38949       1.19257       1.28296       1.33525       1.38837
 Alpha virt. eigenvalues --        1.40513       1.45710       1.78560       1.82901       1.92330
 Alpha virt. eigenvalues --        2.56659       2.58896       2.90327       2.98901       2.99997
 Alpha virt. eigenvalues --        3.41049       3.76273       3.93293       4.35410
          Condensed to atoms (all electrons):
               1          2          3
     1  O    8.128009   0.303271   0.303271
     2  H    0.303271   0.354408  -0.024956
     3  H    0.303271  -0.024956   0.354408
 Mulliken charges:
               1
     1  O   -0.734552
     2  H    0.367276
     3  H    0.367276
 Sum of Mulliken charges=  -0.00000
 Mulliken charges with hydrogens summed into heavy atoms:
               1
     1  O   -0.000000
 Electronic spatial extent (au):  <R**2>=             19.3306
 Charge=             -0.0000 electrons
 Dipole moment (field-independent basis, Debye):
    X=             -0.0000    Y=              0.0000    Z=             -2.2339  Tot=              2.2339
 Quadrupole moment (field-independent basis, Debye-Ang):
   XX=             -7.5920   YY=             -4.1319   ZZ=             -6.3357
   XY=              0.0000   XZ=              0.0000   YZ=             -0.0000
 Traceless Quadrupole moment (field-independent basis, Debye-Ang):
   XX=             -1.5721   YY=              1.8880   ZZ=             -0.3158
   XY=              0.0000   XZ=              0.0000   YZ=             -0.0000
 Octapole moment (field-independent basis, Debye-Ang**2):
  XXX=              0.0000  YYY=             -0.0000  ZZZ=             -1.6280  XYY=             -0.0000
  XXY=             -0.0000  XXZ=             -0.4658  XZZ=             -0.0000  YZZ=              0.0000
  YYZ=             -1.4574  XYZ=             -0.0000
 Hexadecapole moment (field-independent basis, Debye-Ang**3):
 XXXX=             -6.7260 YYYY=             -5.5659 ZZZZ=             -7.0855 XXXY=             -0.0000
 XXXZ=             -0.0000 YYYX=              0.0000 YYYZ=              0.0000 ZZZX=             -0.0000
 ZZZY=             -0.0000 XXYY=             -2.3477 XXZZ=             -2.3503 YYZZ=             -1.8004
 XXYZ=             -0.0000 YYXZ=              0.0000 ZZXY=              0.0000
 N-N=           9.326827 E-N=        -198.983907  KE=          75.797549
 Symmetry A1   KE=          67.764220
 Symmetry A2   KE=           0.000000
 Symmetry B1   KE=           4.451953
 Symmetry B2   KE=           3.581376
 No NMR shielding tensors so no spin-rotation constants.
 Leave Link  601 at Sat Aug  2 15:36:04 2025, MaxMem= 12348030976 cpu:               4.5 elap:               0.1
 (Enter /home/hhratchian/gaussian/gdv-20250101-j30+/gdv/local/l9999.exe)
 Unable to Open any file for archive entry.
 1\1\GINC-HMNODE006\Stability\RHF\Gen\H2O1\AABOUTAKA\02-Aug-2025\0\\#P 
 HF chkbasis Geom=AllCheck Guess=Read Stable=Opt SCF=(fermi,novaracc)\\
 Initial Stability Check for H2O\\0,1\O,0,0.,0.,-0.0372508223\H,0,0.758
 6680525,0.,0.5229094112\H,0,-0.7586680525,0.,0.5229094112\\Version=ES6
 4L-GDVRevJ.30+\State=1-A1\HF=-76.0312306\RMSD=2.262e-32\Dipole=0.,0.,0
 .878888\Quadrupole=1.4036608,-1.1688475,-0.2348133,0.,0.,0.\PG=C02V [C
 2(O1),SGV(H2)]\\@
 The archive entry for this job was punched.


 Sacred cows make the best hamburger.
                               -- Mark Twain
 Job cpu time:       0 days  0 hours  0 minutes 34.7 seconds.
 Elapsed time:       0 days  0 hours  0 minutes  1.4 seconds.
 File lengths (MBytes):  RWF=     30 Int=      0 D2E=      0 Chk=     74 Scr=      2
 Normal termination of Gaussian DV at Sat Aug  2 15:36:04 2025.
