 Set GAUSS_MDEF to "92GB".
 Set GAUSS_PDEF to "56".
 Entering Gaussian System, Link 0=gdv
 Initial command:
 /home/hhratchian/gaussian/gdv-20250101-j30+/gdv/local/l1.exe "/scratch/aaboutaka/1562794/Gau-40993.inp" -scrdir="/scratch/aaboutaka/1562794/"
 Default is to use a total of  56 processors:
                               56 via shared-memory
                                1 via Linda
 Entering Link 1 = /home/hhratchian/gaussian/gdv-20250101-j30+/gdv/local/l1.exe PID=     40994.
  
 Copyright (c) 1988-2024, Gaussian, Inc.  All Rights Reserved.
  
 This is the private, development version of
 the Gaussian(R) DV system of programs. It is based on
 the Gaussian(R) 16 system (copyright 2016, Gaussian, Inc.),
 the Gaussian(R) 09 system (copyright 2009, Gaussian, Inc.),
 the Gaussian(R) 03 system (copyright 2003, Gaussian, Inc.),
 the Gaussian(R) 98 system (copyright 1998, Gaussian, Inc.),
 the Gaussian(R) 94 system (copyright 1995, Gaussian, Inc.),
 the Gaussian 92(TM) system (copyright 1992, Gaussian, Inc.),
 the Gaussian 90(TM) system (copyright 1990, Gaussian, Inc.),
 the Gaussian 88(TM) system (copyright 1988, Gaussian, Inc.),
 the Gaussian 86(TM) system (copyright 1986, Carnegie Mellon
 University), and the Gaussian 82(TM) system (copyright 1983,
 Carnegie Mellon University). Gaussian is a federally registered
 trademark of Gaussian, Inc.
  
 This software contains proprietary and confidential information,
 including trade secrets, belonging to Gaussian, Inc.
  
 This software is provided under written license and may be
 used, copied, transmitted, or stored only in accord with that
 written license.
  
 The following legend is applicable only to US Government
 contracts under FAR:
  
                    RESTRICTED RIGHTS LEGEND
  
 Use, reproduction and disclosure by the US Government is
 subject to restrictions as set forth in subparagraphs (a)
 and (c) of the Commercial Computer Software - Restricted
 Rights clause in FAR 52.227-19.
  
 Gaussian, Inc.
 340 Quinnipiac St., Bldg. 40, Wallingford CT 06492
  
  
 ---------------------------------------------------------------
 Warning -- This program may not be used in any manner that
 competes with the business of Gaussian, Inc. or will provide
 assistance to any competitor of Gaussian, Inc.  The licensee
 of this program is prohibited from giving any competitor of
 Gaussian, Inc. access to this program.  By using this program,
 the user acknowledges that Gaussian, Inc. is engaged in the
 business of creating and licensing software in the field of
 computational chemistry and represents and warrants to the
 licensee that it is not a competitor of Gaussian, Inc. and that
 it will not use this program in any manner prohibited above.
 ---------------------------------------------------------------
  

 Cite this work as:
 Gaussian Development Version, Revision J.30+,
 M. J. Frisch, G. W. Trucks, G. Scalmani, J. R. Cheeseman, X. Li, 
 J. Bloino, B. G. Janesko, A. V. Marenich, J. Zheng, F. Lipparini, 
 A. Jenkins, A. Liu, H. Liu, H. B. Schlegel, G. E. Scuseria, 
 M. A. Robb, V. Barone, G. A. Petersson, H. Nakatsuji, B. Mennucci, 
 C. Adamo, N. Rega, M. Caricato, H. P. Hratchian, J. V. Ortiz, 
 F. Pawlowski, A. F. Izmaylov, H. Hu, C. Liao, J. L. Sonnenberg, 
 D. Williams-Young, F. Ding, R. Gomperts, F. Egidi, J. Goings, 
 B. Peng, A. Petrone, T. Henderson, D. Ranasinghe, V. G. Zakrzewski, 
 J. Gao, G. Zheng, W. Liang, M. Hada, M. Ehara, K. Toyota, R. Fukuda, 
 J. Hasegawa, M. Ishida, T. Nakajima, Y. Honda, O. Kitao, H. Nakai, 
 T. Vreven, K. Throssell, J. A. Montgomery, Jr., J. E. Peralta, 
 F. Ogliaro, M. J. Bearpark, J. J. Heyd, E. N. Brothers, K. N. Kudin, 
 V. N. Staroverov, T. A. Keith, R. Kobayashi, J. Normand, 
 K. Raghavachari, A. P. Rendell, J. C. Burant, S. S. Iyengar, 
 M. Cossi, J. M. Millam, M. Klene, R. Cammi, R. L. Martin, O. Farkas, 
 J. B. Foresman, and D. J. Fox, Gaussian, Inc., Wallingford CT, 2024.
 
 *******************************************
 Gaussian DV:  ES64L-GDVRevJ.30+ 18-Dec-2024
                  2-Aug-2025 
 *******************************************
 %Chk=H2O_CAMB3LYP_631pGdp.chk
 ------------------------------------------------------------------
 #P CAM-B3LYP/6-31+G(d,p) SCF=(fermi,novaracc) Guess=Mix Stable=Opt
 ------------------------------------------------------------------
 1/37=210000000,38=1,172=1/1;
 2/12=2/2;
 3/5=1,6=6,7=1011,11=2,25=1,30=1,74=-40/1,2,3;
 4/13=-1/1;
 5/5=2,22=13,38=1/2;
 6/7=2,8=2,9=2,10=2,28=1/1;
 8/6=1,10=90,11=11/1;
 9/8=-3,42=1,46=1/14;
 5/5=2,8=3,17=40,22=13,38=1/8(-2);
 6/7=2,8=2,9=2,10=2,28=1/1;
 99/5=1,9=1/99;
 Leave Link    1 at Sat Aug  2 15:32:15 2025, MaxMem=           0 cpu:               0.3 elap:               0.0
 (Enter /home/hhratchian/gaussian/gdv-20250101-j30+/gdv/local/l101.exe)
 
  Hrant - IAPOps =                         0
  Hrant - IAPOp1 =                         0
  Hrant - IAPOp2 =                         0
  Hrant - DoAP   =   F
 
 -------------------------------
 Initial Stability Check for H2O
 -------------------------------
 Symbolic Z-matrix:
 Charge =     0 Multiplicity =     1
 O                     0.        0.        0. 
 H                     0.7586    0.        0.50428 
 H                    -0.7586    0.        0.50428 
 
 ITRead=  0  0  0
 MicOpt= -1 -1 -1
 NAtoms=      3 NQM=        3 NQMF=       0 NMMI=      0 NMMIF=      0
                NMic=       0 NMicF=      0.
                    Isotopes and Nuclear Properties:
 (Nuclear quadrupole moments (NQMom) in fm**2, nuclear magnetic moments (NMagM)
  in nuclear magnetons)

  Atom         1           2           3
 IAtWgt=          16           1           1
 AtmWgt=  15.9949146   1.0078250   1.0078250
 NucSpn=           0           1           1
 AtZEff=   -0.000000   -0.000000   -0.000000
 NQMom=    0.0000000   0.0000000   0.0000000
 NMagM=    0.0000000   2.7928460   2.7928460
 AtZNuc=   8.0000000   1.0000000   1.0000000
 Leave Link  101 at Sat Aug  2 15:32:15 2025, MaxMem= 12348030976 cpu:               1.4 elap:               0.1
 (Enter /home/hhratchian/gaussian/gdv-20250101-j30+/gdv/l202.exe)
                          Input orientation:                          
 ---------------------------------------------------------------------
 Center     Atomic      Atomic             Coordinates (Angstroms)
 Number     Number       Type             X           Y           Z
 ---------------------------------------------------------------------
      1          8           0        0.000000    0.000000    0.000000
      2          1           0        0.758602    0.000000    0.504284
      3          1           0       -0.758602   -0.000000    0.504284
 ---------------------------------------------------------------------
                    Distance matrix (angstroms):
                    1          2          3
     1  O    0.000000
     2  H    0.910922   0.000000
     3  H    0.910922   1.517204   0.000000
 Stoichiometry    H2O
 Framework group  C2V[C2(O),SGV(H2)]
 Deg. of freedom     2
 Full point group                 C2V     NOp   4
 Largest Abelian subgroup         C2V     NOp   4
 Largest concise Abelian subgroup C2      NOp   2
                         Standard orientation:                         
 ---------------------------------------------------------------------
 Center     Atomic      Atomic             Coordinates (Angstroms)
 Number     Number       Type             X           Y           Z
 ---------------------------------------------------------------------
      1          8           0        0.000000    0.000000    0.100857
      2          1           0       -0.000000    0.758602   -0.403427
      3          1           0       -0.000000   -0.758602   -0.403427
 ---------------------------------------------------------------------
 Rotational constants (GHZ):        1110.1894251         435.6864908         312.8935057
 Leave Link  202 at Sat Aug  2 15:32:15 2025, MaxMem= 12348030976 cpu:               2.5 elap:               0.1
 (Enter /home/hhratchian/gaussian/gdv-20250101-j30+/gdv/local/l301.exe)
 Standard basis: 6-31+G(d,p) (6D, 7F)
 Ernie: Thresh=  0.10000D-02 Tol=  0.10000D-05 Strict=F.
 There are    14 symmetry adapted cartesian basis functions of A1  symmetry.
 There are     2 symmetry adapted cartesian basis functions of A2  symmetry.
 There are     5 symmetry adapted cartesian basis functions of B1  symmetry.
 There are     8 symmetry adapted cartesian basis functions of B2  symmetry.
 There are    14 symmetry adapted basis functions of A1  symmetry.
 There are     2 symmetry adapted basis functions of A2  symmetry.
 There are     5 symmetry adapted basis functions of B1  symmetry.
 There are     8 symmetry adapted basis functions of B2  symmetry.
    29 basis functions,    46 primitive gaussians,    29 cartesian basis functions
     5 alpha electrons        5 beta electrons
       nuclear repulsion energy         9.6435792538 Hartrees.
 IExCor=   2004019 DFT=T Ex+Corr=CAM-B3LYP ScaHFX=  1.000000
 ScaDFX=  1.000000  1.000000  1.000000  0.810000  1.000000  0.000000
 ScaDFX=  0.000000  0.000000  0.000000  0.000000  0.000000  0.000000
 Grid=UltraFine IRanWt=     -1 IRanGd=            0 ICorTp=0 IEDCtl=  2004
 HFx  wShort=  0.000000 wLong=  0.330000 cFull=  0.190000 cShort=  0.000000 cLong=  0.460000
 DFx  wShort=  0.330000 wLong=  0.000000 cFull=  0.350000 cShort=  0.460000 cLong=  0.000000
 NAtoms=    3 NActive=    3 NUniq=    2 SFac= 2.25D+00 NAtFMM=   60 NAOKFM=F Big=F
 Integral buffers will be    131072 words long.
 Raffenetti 2 integral format.
 Two-electron integral symmetry is turned on.
 Leave Link  301 at Sat Aug  2 15:32:15 2025, MaxMem= 12348030976 cpu:               1.3 elap:               0.1
 (Enter /home/hhratchian/gaussian/gdv-20250101-j30+/gdv/l302.exe)
 NPDir=0 NMtPBC=     1 NCelOv=     1 NCel=       1 NClECP=     1 NCelD=      1
         NCelK=      1 NCelE2=     1 NClLst=     1 CellRange=     0.0.
 One-electron integrals computed using PRISM.
 One-electron integral symmetry used in STVInt
 NBasis=    29 RedAO= T EigKep=  1.62D-02  NBF=    14     2     5     8
 NBsUse=    29 1.00D-06 EigRej= -1.00D+00 NBFU=    14     2     5     8
 Precomputing XC quadrature grid using
 IXCGrd=   9 Grid=UltraFine IRanWt=          -1 IRanGd=           0 AccXCQ= 0.00D+00.
 Generated NRdTot=       0 NPtTot=       69653 NUsed=           0 NTot=          64
 NSgBfM=    29    29    29    29    29 MxSgAt=     3 MxSgA2=     3 SizInc=   0.000
 NMBTot=      713 MaxBatPerAtom=       83 MaxMicBPerAtom=      247 NBfPt=             1706707.
 Leave Link  302 at Sat Aug  2 15:32:15 2025, MaxMem= 12348030976 cpu:               3.4 elap:               0.1
 (Enter /home/hhratchian/gaussian/gdv-20250101-j30+/gdv/l303.exe)
 DipDrv:  MaxL=1.
 Leave Link  303 at Sat Aug  2 15:32:15 2025, MaxMem= 12348030976 cpu:               1.4 elap:               0.1
 (Enter /home/hhratchian/gaussian/gdv-20250101-j30+/gdv/l401.exe)
 ExpMin= 8.45D-02 ExpMax= 5.48D+03 ExpMxC= 8.25D+02 IAcc=3 Grid=UltraFine AccDes= 0.00D+00
 Harris functional with IExCor=10009 and Grid=UltraFine diagonalized for initial guess.
 HarFok:  IExCor=   10009 AccDes= 0.00D+00 Grid=UltraFine IDoV= 1 UseB2=F ITyADJ=14 ICtDFT=  3500011
 FoFCou: FMM=F IPFlag=           0 FMFlag=      100000 FMFlg1=           0
         NFxFlg=           0 DoJE=T BraDBF=F KetDBF=T FulRan=T
         wScrn=  0.000000 ICntrl=       500 IOpCl=  0 I1Cent=   200000004 NGrid=           0
         NMat0=    1 NMatS0=      1 NMatT0=    0 NMatD0=    1 NMtDS0=    0 NMtDT0=    0
 Petite list used in FoFCou.
 Harris En= -76.3881866432080    
 JPrj=0 DoOrth=F DoCkMO=T.
 Mixing orbitals, IMix= 1 IMixAn=  0 NRI=1 NE=    5 Coef=  7.07106781D-01  7.07106781D-01
 Initial guess orbital symmetries:
       Occupied  (A1) (A1) (B2) (A1) (?A)
       Virtual   (?A) (B2) (A1) (B1) (B2) (A1) (B2) (A1) (B2) (B1)
                 (A1) (A1) (A2) (A1) (B1) (B2) (A1) (B2) (B1) (A2)
                 (A1) (A1) (B2) (A1)
 Leave Link  401 at Sat Aug  2 15:32:15 2025, MaxMem= 12348030976 cpu:               8.3 elap:               0.2
 (Enter /home/hhratchian/gaussian/gdv-20250101-j30+/gdv/local/l502.exe)
 Keep R1 ints in memory in symmetry-blocked form, NReq=48637915.
 FoFCou: FMM=F IPFlag=           0 FMFlag=           0 FMFlg1=           0
         NFxFlg=           0 DoJE=F BraDBF=F KetDBF=F FulRan=T
         wScrn=  0.000000 ICntrl=       600 IOpCl=  0 I1Cent=           0 NGrid=           0
         NMat0=    1 NMatS0=    435 NMatT0=    0 NMatD0=    1 NMtDS0=    0 NMtDT0=    0
 Petite list used in FoFCou.
 Closed shell SCF:
 Using DIIS extrapolation, IDIIS=    10.
 NGot= 12348030976 LenX= 12347998860 LenY= 12347997578
 Requested convergence on RMS density matrix=1.00D-08 within 128 cycles.
 Requested convergence on MAX density matrix=1.00D-06.
 Requested convergence on             energy=1.00D-06.
 Level shift goal  0.100 maximum shift  0.100.
 No special actions if energy rises.
 Dynamic level shift is on during FON iterations.
 An orbital has undefined symmetry, so N**3 symmetry is turned off.
 
  Hrant - CycOpn.
 

 Cycle   1  Pass 1  IDiag  1:
 Density matrix breaks symmetry, PCut= 1.00D-04
 Density matrix has no symmetry -- integrals replicated.
 E= -76.0302005707644    
 DIIS: error= 6.54D-02 at cycle   1 NSaved=   1.
 NSaved= 1 IEnMin= 1 EnMin= -76.0302005707644     IErMin= 1 ErrMin= 6.54D-02
 ErrMax= 6.54D-02  0.00D+00 EMaxC= 1.00D+00 BMatC= 2.35D-02 BMatP= 2.35D-02
 Rises=F IDIUse=1 WtCom= 1.00D+00 WtEn= 0.00D+00
 Coeff-Com:  0.100D+01
 Coeff:      0.100D+01
 Gap=     0.155 Goal=     0.100 Shift=    0.000
 T= 1964. Gap= 0.443 NK=0 IS=    6 IE=   29 IFin=    5
          NO(<0.9)=   0  NV(>0.1)=   0      5.00e < EF      0.00e >EF  Err=0.0D+00
 GapD=    0.155 DampG=1.000 DampE=0.500 DampFc=0.5000 IDamp=-1.
 Damping current iteration by 5.00D-01
 RMSDP=5.08D-02 MaxDP=6.83D-01              OVMax= 5.70D-01

 Cycle   2  Pass 1  IDiag  1:
 Density matrix breaks symmetry, PCut= 1.00D-04
 Density matrix has no symmetry -- integrals replicated.
 E= -76.1757465501619     Delta-E=       -0.145545979398 Rises=F Damp=T AM=F Ri=F Fa=F
 DIIS: error= 3.91D-02 at cycle   2 NSaved=   2.
 NSaved= 2 IEnMin= 2 EnMin= -76.1757465501619     IErMin= 2 ErrMin= 3.91D-02
 ErrMax= 3.91D-02  0.00D+00 EMaxC= 1.00D+00 BMatC= 1.42D-02 BMatP= 2.35D-02
 Rises=F IDIUse=1 WtCom= 1.00D+00 WtEn= 0.00D+00
 Coeff-Com:  0.199D+00 0.801D+00
 Coeff:      0.199D+00 0.801D+00
 Gap=     0.400 Goal=     0.100 Shift=    0.000
 T= 1877. Gap= 0.402 NK=0 IS=    6 IE=   29 IFin=    5
          NO(<0.9)=   0  NV(>0.1)=   0      5.00e < EF      0.00e >EF  Err=0.0D+00
 GapD=    0.400 DampG=1.000 DampE=0.500 DampFc=0.5000 IDamp=-1.
 Damping current iteration by 5.00D-01
 RMSDP=2.73D-02 MaxDP=3.53D-01 DE=-1.46D-01 OVMax= 6.63D-02

 Cycle   3  Pass 1  IDiag  1:
 Density matrix breaks symmetry, PCut= 1.00D-04
 Density matrix has no symmetry -- integrals replicated.
 E= -76.2713718088957     Delta-E=       -0.095625258734 Rises=F Damp=T AM=F Ri=F Fa=F
 DIIS: error= 2.76D-02 at cycle   3 NSaved=   3.
 NSaved= 3 IEnMin= 3 EnMin= -76.2713718088957     IErMin= 3 ErrMin= 2.76D-02
 ErrMax= 2.76D-02  0.00D+00 EMaxC= 1.00D+00 BMatC= 6.63D-03 BMatP= 1.42D-02
 Rises=F IDIUse=1 WtCom= 1.00D+00 WtEn= 0.00D+00
 Coeff-Com:  0.311D-01-0.179D+01 0.276D+01
 Coeff:      0.311D-01-0.179D+01 0.276D+01
 Gap=     0.455 Goal=     0.100 Shift=    0.000
 T= 1726. Gap= 0.466 NK=0 IS=    6 IE=   29 IFin=    5
          NO(<0.9)=   0  NV(>0.1)=   0      5.00e < EF      0.00e >EF  Err=0.0D+00
 GapD=    0.455 DampG=2.000 DampE=0.500 DampFc=1.0000 IDamp=-1.
 RMSDP=1.99D-02 MaxDP=1.98D-01 DE=-9.56D-02 OVMax= 1.22D-01

 Cycle   4  Pass 1  IDiag  1:
 Density matrix breaks symmetry, PCut= 1.00D-04
 Density matrix has no symmetry -- integrals replicated.
 E= -76.3965921903579     Delta-E=       -0.125220381462 Rises=F Damp=F AM=F Ri=F Fa=F
 DIIS: error= 1.22D-02 at cycle   4 NSaved=   4.
 NSaved= 4 IEnMin= 4 EnMin= -76.3965921903579     IErMin= 4 ErrMin= 1.22D-02
 ErrMax= 1.22D-02  0.00D+00 EMaxC= 1.00D+00 BMatC= 1.70D-03 BMatP= 6.63D-03
 Rises=F IDIUse=1 WtCom= 1.00D+00 WtEn= 0.00D+00
 Coeff-Com: -0.184D+00 0.207D+00 0.183D+00 0.794D+00
 Coeff:     -0.184D+00 0.207D+00 0.183D+00 0.794D+00
 Gap=     0.470 Goal=     0.100 Shift=    0.000
 T= 1417. Gap= 0.470 NK=0 IS=    6 IE=   29 IFin=    5
          NO(<0.9)=   0  NV(>0.1)=   0      5.00e < EF      0.00e >EF  Err=0.0D+00
 GapD=    0.470 DampG=2.000 DampE=0.500 DampFc=1.0000 IDamp=-1.
 RMSDP=1.17D-03 MaxDP=1.09D-02 DE=-1.25D-01 OVMax= 1.65D-02

 Cycle   5  Pass 1  IDiag  1:
 Density matrix breaks symmetry, PCut= 1.00D-04
 Density matrix has no symmetry -- integrals replicated.
 E= -76.3992398342045     Delta-E=       -0.002647643847 Rises=F Damp=F AM=F Ri=F Fa=F
 DIIS: error= 1.64D-03 at cycle   5 NSaved=   5.
 NSaved= 5 IEnMin= 5 EnMin= -76.3992398342045     IErMin= 5 ErrMin= 1.64D-03
 ErrMax= 1.64D-03  0.00D+00 EMaxC= 1.00D+00 BMatC= 3.60D-05 BMatP= 1.70D-03
 Rises=F IDIUse=1 WtCom= 1.00D+00 WtEn= 0.00D+00
 Coeff-Com: -0.619D-02 0.661D-01-0.124D+00-0.189D+00 0.125D+01
 Coeff:     -0.619D-02 0.661D-01-0.124D+00-0.189D+00 0.125D+01
 Gap=     0.471 Goal=     0.100 Shift=    0.000
 T= 1031. Gap= 0.471 NK=0 IS=    6 IE=   29 IFin=    5
          NO(<0.9)=   0  NV(>0.1)=   0      5.00e < EF      0.00e >EF  Err=0.0D+00
 GapD=    0.471 DampG=2.000 DampE=1.000 DampFc=2.0000 IDamp=-1.
 RMSDP=7.89D-04 MaxDP=9.09D-03 DE=-2.65D-03 OVMax= 1.27D-02

 Cycle   6  Pass 1  IDiag  1:
 Density matrix breaks symmetry, PCut= 1.00D-04
 Density matrix has no symmetry -- integrals replicated.
 E= -76.3993905798351     Delta-E=       -0.000150745631 Rises=F Damp=F AM=F Ri=F Fa=F
 DIIS: error= 2.44D-04 at cycle   6 NSaved=   6.
 NSaved= 6 IEnMin= 6 EnMin= -76.3993905798351     IErMin= 6 ErrMin= 2.44D-04
 ErrMax= 2.44D-04  0.00D+00 EMaxC= 1.00D+00 BMatC= 9.74D-07 BMatP= 3.60D-05
 Rises=F IDIUse=1 WtCom= 1.00D+00 WtEn= 0.00D+00
 Coeff-Com: -0.525D-03-0.114D-01 0.198D-01-0.132D-01-0.557D-01 0.106D+01
 Coeff:     -0.525D-03-0.114D-01 0.198D-01-0.132D-01-0.557D-01 0.106D+01
 Gap=     0.470 Goal=     0.100 Shift=    0.000
 RMSDP=5.52D-05 MaxDP=4.51D-04 DE=-1.51D-04 OVMax= 6.30D-04

 Cycle   7  Pass 1  IDiag  1:
 Density matrix breaks symmetry, PCut= 1.00D-04
 Density matrix has no symmetry -- integrals replicated.
 E= -76.3993925896801     Delta-E=       -0.000002009845 Rises=F Damp=F AM=F Ri=F Fa=F
 DIIS: error= 4.79D-05 at cycle   7 NSaved=   7.
 NSaved= 7 IEnMin= 7 EnMin= -76.3993925896801     IErMin= 7 ErrMin= 4.79D-05
 ErrMax= 4.79D-05  0.00D+00 EMaxC= 1.00D+00 BMatC= 3.76D-08 BMatP= 9.74D-07
 Rises=F IDIUse=1 WtCom= 1.00D+00 WtEn= 0.00D+00
 Coeff-Com:  0.122D-03 0.513D-03-0.450D-04 0.153D-02-0.202D-01-0.145D+00
 Coeff-Com:  0.116D+01
 Coeff:      0.122D-03 0.513D-03-0.450D-04 0.153D-02-0.202D-01-0.145D+00
 Coeff:      0.116D+01
 Gap=     0.470 Goal=     0.100 Shift=    0.000
 RMSDP=1.25D-05 MaxDP=9.64D-05 DE=-2.01D-06 OVMax= 1.42D-04

 Cycle   8  Pass 1  IDiag  1:
 E= -76.3993896330263     Delta-E=        0.000002956654 Rises=F Damp=F AM=T Ri=T Fa=F
 DIIS: error= 2.39D-05 at cycle   8 NSaved=   8.
 NSaved= 8 IEnMin= 7 EnMin= -76.3993925896801     IErMin= 8 ErrMin= 2.39D-05
 ErrMax= 2.39D-05  0.00D+00 EMaxC= 1.00D+00 BMatC= 5.78D-09 BMatP= 3.76D-08
 Rises=T IDIUse=1 WtCom= 1.00D+00 WtEn= 0.00D+00
 Coeff-Com: -0.178D-04 0.449D-03-0.694D-03 0.159D-02-0.655D-03-0.362D-01
 Coeff-Com:  0.185D+00 0.850D+00
 Coeff:     -0.178D-04 0.449D-03-0.694D-03 0.159D-02-0.655D-03-0.362D-01
 Coeff:      0.185D+00 0.850D+00
 Gap=     0.470 Goal=   None    Shift=    0.000
 RMSDP=2.27D-06 MaxDP=2.04D-05 DE= 2.96D-06 OVMax= 3.01D-05

 Cycle   9  Pass 1  IDiag  1:
 E= -76.3993933349415     Delta-E=       -0.000003701915 Rises=F Damp=F AM=F Ri=F Fa=F
 DIIS: error= 1.35D-06 at cycle   9 NSaved=   9.
 NSaved= 9 IEnMin= 9 EnMin= -76.3993933349415     IErMin= 9 ErrMin= 1.35D-06
 ErrMax= 1.35D-06  0.00D+00 EMaxC= 1.00D+00 BMatC= 1.01D-11 BMatP= 5.78D-09
 Rises=F IDIUse=1 WtCom= 1.00D+00 WtEn= 0.00D+00
 Coeff-Com: -0.210D-05-0.157D-04 0.257D-04-0.213D-03 0.416D-03 0.442D-02
 Coeff-Com: -0.303D-01-0.155D+00 0.118D+01
 Coeff:     -0.210D-05-0.157D-04 0.257D-04-0.213D-03 0.416D-03 0.442D-02
 Coeff:     -0.303D-01-0.155D+00 0.118D+01
 Gap=     0.470 Goal=     0.100 Shift=    0.000
 RMSDP=2.60D-07 MaxDP=2.48D-06 DE=-3.70D-06 OVMax= 3.92D-06

 Cycle  10  Pass 1  IDiag  1:
 E= -76.3993925966447     Delta-E=        0.000000738297 Rises=F Damp=F AM=F Ri=F Fa=F
 DIIS: error= 1.51D-07 at cycle  10 NSaved=  10.
 NSaved=10 IEnMin= 9 EnMin= -76.3993933349415     IErMin=10 ErrMin= 1.51D-07
 ErrMax= 1.51D-07  0.00D+00 EMaxC= 1.00D+00 BMatC= 4.20D-13 BMatP= 1.01D-11
 Rises=F IDIUse=1 WtCom= 1.00D+00 WtEn= 0.00D+00
 Coeff-Com: -0.303D-06-0.142D-05 0.248D-05 0.930D-05-0.135D-05-0.702D-04
 Coeff-Com: -0.962D-03 0.167D-01-0.155D+00 0.114D+01
 Coeff:     -0.303D-06-0.142D-05 0.248D-05 0.930D-05-0.135D-05-0.702D-04
 Coeff:     -0.962D-03 0.167D-01-0.155D+00 0.114D+01
 Gap=     0.470 Goal=     0.100 Shift=    0.000
 RMSDP=3.69D-08 MaxDP=3.35D-07 DE= 7.38D-07 OVMax= 5.67D-07

 Cycle  11  Pass 1  IDiag  1:
 E= -76.3993926607758     Delta-E=       -0.000000064131 Rises=F Damp=F AM=F Ri=F Fa=F
 DIIS: error= 2.38D-08 at cycle  11 NSaved=  11.
 NSaved=11 IEnMin= 9 EnMin= -76.3993933349415     IErMin=11 ErrMin= 2.38D-08
 ErrMax= 2.38D-08  0.00D+00 EMaxC= 1.00D+00 BMatC= 6.91D-15 BMatP= 4.20D-13
 Rises=F IDIUse=1 WtCom= 1.00D+00 WtEn= 0.00D+00
 Coeff-Com:  0.483D-07-0.212D-06 0.177D-06 0.140D-05-0.172D-05-0.319D-04
 Coeff-Com:  0.719D-04 0.317D-02-0.267D-01 0.730D-01 0.951D+00
 Coeff:      0.483D-07-0.212D-06 0.177D-06 0.140D-05-0.172D-05-0.319D-04
 Coeff:      0.719D-04 0.317D-02-0.267D-01 0.730D-01 0.951D+00
 Gap=     0.470 Goal=     0.100 Shift=    0.000
 RMSDP=4.20D-09 MaxDP=3.74D-08 DE=-6.41D-08 OVMax= 6.13D-08

 SCF Done:  E(RCAM-B3LYP) =  -76.3993926608     A.U. after   11 cycles
            NFock= 11  Conv=0.42D-08     -V/T= 2.0064
 KE=          75.910528 PE=        -199.628885 EE=          37.675385
 Leave Link  502 at Sat Aug  2 15:32:16 2025, MaxMem= 12348030976 cpu:              12.6 elap:               0.3
 (Enter /home/hhratchian/gaussian/gdv-20250101-j30+/gdv/l601.exe)
 Copying SCF densities to generalized density rwf, IOpCl= 0 IROHF=0.
 
 **********************************************************************
 
               Population analysis using the SCF Density.
 
 **********************************************************************
 
 Orbital symmetries:
       Occupied  (A1) (A1) (B2) (A1) (B1)
       Virtual   (A1) (B2) (A1) (B1) (B2) (A1) (B2) (A1) (B2) (A1)
                 (B1) (A1) (A2) (A1) (B1) (B2) (A1) (B2) (B1) (A2)
                 (A1) (A1) (B2) (A1)
 The electronic state is 1-A1.
 Alpha  occ. eigenvalues --      -19.23124      -1.12008      -0.64560      -0.45473      -0.39335
 Alpha virt. eigenvalues --        0.07661       0.15452       0.19243       0.19343       0.28519
 Alpha virt. eigenvalues --        0.29658       1.02382       1.09071       1.13731       1.16275
 Alpha virt. eigenvalues --        1.17950       1.28489       1.56744       1.65622       1.72712
 Alpha virt. eigenvalues --        2.32078       2.37166       2.71976       2.73334       2.81856
 Alpha virt. eigenvalues --        3.20913       3.52091       3.63685       4.07747
          Condensed to atoms (all electrons):
               1          2          3
     1  O    8.102966   0.310270   0.310270
     2  H    0.310270   0.354415  -0.026438
     3  H    0.310270  -0.026438   0.354415
 Mulliken charges:
               1
     1  O   -0.723506
     2  H    0.361753
     3  H    0.361753
 Sum of Mulliken charges=  -0.00000
 Mulliken charges with hydrogens summed into heavy atoms:
               1
     1  O   -0.000000
 Electronic spatial extent (au):  <R**2>=             19.4619
 Charge=             -0.0000 electrons
 Dipole moment (field-independent basis, Debye):
    X=             -0.0000    Y=              0.0000    Z=             -2.0673  Tot=              2.0673
 Quadrupole moment (field-independent basis, Debye-Ang):
   XX=             -7.7788   YY=             -4.2012   ZZ=             -6.7144
   XY=              0.0000   XZ=              0.0000   YZ=             -0.0000
 Traceless Quadrupole moment (field-independent basis, Debye-Ang):
   XX=             -1.5473   YY=              2.0303   ZZ=             -0.4829
   XY=              0.0000   XZ=              0.0000   YZ=             -0.0000
 Octapole moment (field-independent basis, Debye-Ang**2):
  XXX=              0.0000  YYY=              0.0000  ZZZ=             -1.5689  XYY=             -0.0000
  XXY=              0.0000  XXZ=             -0.4865  XZZ=              0.0000  YZZ=              0.0000
  YYZ=             -1.3011  XYZ=             -0.0000
 Hexadecapole moment (field-independent basis, Debye-Ang**3):
 XXXX=             -7.8087 YYYY=             -5.9164 ZZZZ=             -7.8508 XXXY=             -0.0000
 XXXZ=             -0.0000 YYYX=              0.0000 YYYZ=              0.0000 ZZZX=             -0.0000
 ZZZY=              0.0000 XXYY=             -2.5750 XXZZ=             -2.6411 YYZZ=             -2.1129
 XXYZ=             -0.0000 YYXZ=              0.0000 ZZXY=             -0.0000
 N-N=           9.643579 E-N=        -199.628886  KE=          75.910528
 Symmetry A1   KE=          67.731121
 Symmetry A2   KE=           0.000000
 Symmetry B1   KE=           4.457057
 Symmetry B2   KE=           3.722350
 No NMR shielding tensors so no spin-rotation constants.
 Leave Link  601 at Sat Aug  2 15:32:16 2025, MaxMem= 12348030976 cpu:               4.8 elap:               0.1
 (Enter /home/hhratchian/gaussian/gdv-20250101-j30+/gdv/l801.exe)
 DoSCS=F DFT=T ScalE2(SS,OS)=  1.000000  1.000000
 Range of M.O.s used for correlation:     1    29
 NBasis=    29 NAE=     5 NBE=     5 NFC=     0 NFV=     0
 NROrb=     29 NOA=     5 NOB=     5 NVA=    24 NVB=    24
 Leave Link  801 at Sat Aug  2 15:32:16 2025, MaxMem= 12348030976 cpu:               0.1 elap:               0.0
 (Enter /home/hhratchian/gaussian/gdv-20250101-j30+/gdv/l914.exe)
 RHF ground state
 Doing stability rather than CIS.
 DoSCS=F DFT=T ScalE2(SS,OS)=  1.000000  1.000000
   ScalD2(USS,UOS,TSS,TOS,w)=  1.000000  1.000000  1.000000  1.000000  1.000000
 Keep R1 and R2 ints in memory in symmetry-blocked form, NReq=58362238.
 FoFCou: FMM=F IPFlag=           0 FMFlag=           0 FMFlg1=           0
         NFxFlg=           0 DoJE=F BraDBF=F KetDBF=F FulRan=T
         wScrn=  0.000000 ICntrl=       600 IOpCl=  0 I1Cent=           0 NGrid=           0
         NMat0=    1 NMatS0=    435 NMatT0=    0 NMatD0=    1 NMtDS0=    0 NMtDT0=    0
 Petite list used in FoFCou.
 MDV= 12348030976 DFT=T IDoStb=1 Mixed=T DoRPA=F DoScal=F NonHer=F
 Making orbital integer symmetry assigments:
 Orbital symmetries:
       Occupied  (A1) (A1) (B2) (A1) (B1)
       Virtual   (A1) (B2) (A1) (B1) (B2) (A1) (B2) (A1) (B2) (A1)
                 (B1) (A1) (A2) (A1) (B1) (B2) (A1) (B2) (B1) (A2)
                 (A1) (A1) (B2) (A1)
    24 initial guesses have been made.
 Convergence on wavefunction:    0.001000000000000
 Davidson Disk Diagonalization:  ConvIn= 1.00D-03 SkipCon=T Conv= 1.00D-03.
 Max sub-space:   480 initial roots:    24 roots to seek:     1 dimension of matrix:          240
 Iteration     1 Dimension    24 NMult     0 NNew     24
 CISAX will form    24 AO SS matrices at one time.
 NMat=    24 NSing=    12 JSym2X= 2.
 New state      1 was old state      2
 Excitation Energies [eV] at current iteration:
 Root      1 :     7.590579454303545
 Root      2 :     8.751126165702013
 Root      3 :     9.493882247718229
 Root      4 :    10.139041276851419
 Root      5 :    10.483473891559010
 Root      6 :    10.612088470753850
 Root      7 :    10.753796163082310
 Root      8 :    11.314147788851232
 Root      9 :    11.711037396597050
 Root     10 :    11.856939435743264
 Root     11 :    12.388910328100346
 Root     12 :    12.602108784177458
 Root     13 :    12.686195968670477
 Root     14 :    13.018260625134786
 Root     15 :    13.272645752647916
 Root     16 :    13.406502317492311
 Root     17 :    13.611682988898503
 Root     18 :    13.667061925434465
 Root     19 :    14.161457622128497
 Root     20 :    14.777834923855167
 Root     21 :    14.904850908326669
 Root     22 :    15.585755708503696
 Root     23 :    17.186541745888217
 Root     24 :    19.136565090599035
 Iteration     2 Dimension    48 NMult    24 NNew     24
 CISAX will form    24 AO SS matrices at one time.
 NMat=    24 NSing=    12 JSym2X= 2.
 Root      1 not converged, maximum delta is    0.034479178043657
 Excitation Energies [eV] at current iteration:
 Root      1 :     7.426899063459127   Change is   -0.163680390844418
 Root      2 :     8.713139204275532   Change is   -0.037986961426482
 Root      3 :     9.128027863832388   Change is   -0.365854383885843
 Root      4 :     9.957504547591341   Change is   -0.181536729260078
 Root      5 :    10.388762049810888   Change is   -0.365034113271424
 Root      6 :    10.400949486164176   Change is   -0.082524405394834
 Root      7 :    10.580130905606692   Change is   -0.031957565147157
 Root      8 :    11.159648897633952   Change is   -0.154498891217280
 Root      9 :    11.388655547211508   Change is   -0.322381849385541
 Root     10 :    11.814334238742180   Change is   -0.042605197001083
 Root     11 :    12.278751719023873   Change is   -0.323357065153584
 Root     12 :    12.335105953512896   Change is   -0.053804374587451
 Root     13 :    12.379156840769820   Change is   -0.307039127900657
 Root     14 :    12.913560845835786   Change is   -0.104699779299001
 Root     15 :    13.136943179671226   Change is   -0.135702572976690
 Root     16 :    13.375592550683155   Change is   -0.030909766809157
 Root     17 :    13.489794588024713   Change is   -0.121888400873790
 Root     18 :    13.585853136016878   Change is   -0.575604486111620
 Root     19 :    13.626452237973375   Change is   -0.040609687461090
 Root     20 :    14.531244734672180   Change is   -0.246590189182987
 Root     21 :    14.605679026845086   Change is   -0.299171881481582
 Root     22 :    14.729517133536445   Change is   -4.407047957062590
 Root     23 :    15.499690033665026   Change is   -0.086065674838670
 Root     24 :    16.410071158218592   Change is   -0.776470587669624
 Iteration     3 Dimension    54 NMult    48 NNew      6
 CISAX will form     6 AO SS matrices at one time.
 NMat=     6 NSing=     3 JSym2X= 2.
 Root      1 has converged.
 Excitation Energies [eV] at current iteration:
 Root      1 :     7.426691285744039   Change is   -0.000207777715088
 Root      2 :     8.713058520558704   Change is   -0.000080683716828
 Root      3 :     9.098910095294583   Change is   -0.029117768537804
 Root      4 :     9.955498131255860   Change is   -0.002006416335480
 Root      5 :    10.395712951521187   Change is   -0.005236534642989
 Root      6 :    10.579872208244844   Change is   -0.000258697361850
 Convergence achieved on expansion vectors.
 1PDM for each excited state written to RWF  633
 Ground to excited state transition densities written to RWF  633

 ***********************************************************************
 Stability analysis using <AA,BB:AA,BB> singles matrix:
 ***********************************************************************

 Eigenvectors of the stability matrix:
 
 Eigenvector   1:      Triplet-B1   Eigenvalue= 0.2729259  <S**2>=2.000
       5 ->  6         0.69492
       5 -> 11        -0.11320
 The wavefunction is stable under the perturbations considered.
 Leave Link  914 at Sat Aug  2 15:32:16 2025, MaxMem= 12348030976 cpu:              18.4 elap:               0.4
 (Enter /home/hhratchian/gaussian/gdv-20250101-j30+/gdv/l508.exe)
 The wavefunction is already stable.
 Leave Link  508 at Sat Aug  2 15:32:16 2025, MaxMem= 12348030976 cpu:               0.1 elap:               0.0
 (Enter /home/hhratchian/gaussian/gdv-20250101-j30+/gdv/l601.exe)
 Copying SCF densities to generalized density rwf, IOpCl= 0 IROHF=0.
 
 **********************************************************************
 
               Population analysis using the SCF Density.
 
 **********************************************************************
 
 Orbital symmetries:
       Occupied  (A1) (A1) (B2) (A1) (B1)
       Virtual   (A1) (B2) (A1) (B1) (B2) (A1) (B2) (A1) (B2) (A1)
                 (B1) (A1) (A2) (A1) (B1) (B2) (A1) (B2) (B1) (A2)
                 (A1) (A1) (B2) (A1)
 The electronic state is 1-A1.
 Alpha  occ. eigenvalues --      -19.23124      -1.12008      -0.64560      -0.45473      -0.39335
 Alpha virt. eigenvalues --        0.07661       0.15452       0.19243       0.19343       0.28519
 Alpha virt. eigenvalues --        0.29658       1.02382       1.09071       1.13731       1.16275
 Alpha virt. eigenvalues --        1.17950       1.28489       1.56744       1.65622       1.72712
 Alpha virt. eigenvalues --        2.32078       2.37166       2.71976       2.73334       2.81856
 Alpha virt. eigenvalues --        3.20913       3.52091       3.63685       4.07747
          Condensed to atoms (all electrons):
               1          2          3
     1  O    8.102966   0.310270   0.310270
     2  H    0.310270   0.354415  -0.026438
     3  H    0.310270  -0.026438   0.354415
 Mulliken charges:
               1
     1  O   -0.723506
     2  H    0.361753
     3  H    0.361753
 Sum of Mulliken charges=  -0.00000
 Mulliken charges with hydrogens summed into heavy atoms:
               1
     1  O   -0.000000
 Electronic spatial extent (au):  <R**2>=             19.4619
 Charge=             -0.0000 electrons
 Dipole moment (field-independent basis, Debye):
    X=             -0.0000    Y=              0.0000    Z=             -2.0673  Tot=              2.0673
 Quadrupole moment (field-independent basis, Debye-Ang):
   XX=             -7.7788   YY=             -4.2012   ZZ=             -6.7144
   XY=              0.0000   XZ=              0.0000   YZ=             -0.0000
 Traceless Quadrupole moment (field-independent basis, Debye-Ang):
   XX=             -1.5473   YY=              2.0303   ZZ=             -0.4829
   XY=              0.0000   XZ=              0.0000   YZ=             -0.0000
 Octapole moment (field-independent basis, Debye-Ang**2):
  XXX=              0.0000  YYY=              0.0000  ZZZ=             -1.5689  XYY=             -0.0000
  XXY=              0.0000  XXZ=             -0.4865  XZZ=              0.0000  YZZ=              0.0000
  YYZ=             -1.3011  XYZ=             -0.0000
 Hexadecapole moment (field-independent basis, Debye-Ang**3):
 XXXX=             -7.8087 YYYY=             -5.9164 ZZZZ=             -7.8508 XXXY=             -0.0000
 XXXZ=             -0.0000 YYYX=              0.0000 YYYZ=              0.0000 ZZZX=             -0.0000
 ZZZY=              0.0000 XXYY=             -2.5750 XXZZ=             -2.6411 YYZZ=             -2.1129
 XXYZ=             -0.0000 YYXZ=              0.0000 ZZXY=             -0.0000
 N-N=           9.643579 E-N=        -199.628886  KE=          75.910528
 Symmetry A1   KE=          67.731121
 Symmetry A2   KE=           0.000000
 Symmetry B1   KE=           4.457057
 Symmetry B2   KE=           3.722350
 No NMR shielding tensors so no spin-rotation constants.
 Leave Link  601 at Sat Aug  2 15:32:17 2025, MaxMem= 12348030976 cpu:               4.5 elap:               0.1
 (Enter /home/hhratchian/gaussian/gdv-20250101-j30+/gdv/local/l9999.exe)
 Unable to Open any file for archive entry.
 1\1\GINC-HMNODE006\Stability\RCAM-B3LYP\6-31+G(d,p)\H2O1\AABOUTAKA\02-
 Aug-2025\0\\#P CAM-B3LYP/6-31+G(d,p) SCF=(fermi,novaracc) Guess=Mix St
 able=Opt\\Initial Stability Check for H2O\\0,1\O,0,0.,0.,0.\H,0,0.7586
 02,0.,0.504284\H,0,-0.758602,0.,0.504284\\Version=ES64L-GDVRevJ.30+\St
 ate=1-A1\HF=-76.3993927\RMSD=4.201e-09\Dipole=0.,0.,0.8133193\Quadrupo
 le=1.5094491,-1.1504006,-0.3590485,0.,0.,0.\PG=C02V [C2(O1),SGV(H2)]\\
 @
 The archive entry for this job was punched.


 ONE BIG VICE IN A MAN IS APT TO KEEP OUT MANY SMALLER ONES.

                           -- BRET HARTE
 Job cpu time:       0 days  0 hours  1 minutes  1.3 seconds.
 Elapsed time:       0 days  0 hours  0 minutes  1.8 seconds.
 File lengths (MBytes):  RWF=     22 Int=      0 D2E=      0 Chk=      2 Scr=      2
 Normal termination of Gaussian DV at Sat Aug  2 15:32:17 2025.
 Initial command:
 /home/hhratchian/gaussian/gdv-20250101-j30+/gdv/local/l1.exe "/scratch/aaboutaka/1562794/Gau-40993.inp" -scrdir="/scratch/aaboutaka/1562794/"
 Default is to use a total of  56 processors:
                               56 via shared-memory
                                1 via Linda
 Entering Link 1 = /home/hhratchian/gaussian/gdv-20250101-j30+/gdv/local/l1.exe PID=     41765.
  
 Copyright (c) 1988-2024, Gaussian, Inc.  All Rights Reserved.
  
 This is the private, development version of
 the Gaussian(R) DV system of programs. It is based on
 the Gaussian(R) 16 system (copyright 2016, Gaussian, Inc.),
 the Gaussian(R) 09 system (copyright 2009, Gaussian, Inc.),
 the Gaussian(R) 03 system (copyright 2003, Gaussian, Inc.),
 the Gaussian(R) 98 system (copyright 1998, Gaussian, Inc.),
 the Gaussian(R) 94 system (copyright 1995, Gaussian, Inc.),
 the Gaussian 92(TM) system (copyright 1992, Gaussian, Inc.),
 the Gaussian 90(TM) system (copyright 1990, Gaussian, Inc.),
 the Gaussian 88(TM) system (copyright 1988, Gaussian, Inc.),
 the Gaussian 86(TM) system (copyright 1986, Carnegie Mellon
 University), and the Gaussian 82(TM) system (copyright 1983,
 Carnegie Mellon University). Gaussian is a federally registered
 trademark of Gaussian, Inc.
  
 This software contains proprietary and confidential information,
 including trade secrets, belonging to Gaussian, Inc.
  
 This software is provided under written license and may be
 used, copied, transmitted, or stored only in accord with that
 written license.
  
 The following legend is applicable only to US Government
 contracts under FAR:
  
                    RESTRICTED RIGHTS LEGEND
  
 Use, reproduction and disclosure by the US Government is
 subject to restrictions as set forth in subparagraphs (a)
 and (c) of the Commercial Computer Software - Restricted
 Rights clause in FAR 52.227-19.
  
 Gaussian, Inc.
 340 Quinnipiac St., Bldg. 40, Wallingford CT 06492
  
  
 ---------------------------------------------------------------
 Warning -- This program may not be used in any manner that
 competes with the business of Gaussian, Inc. or will provide
 assistance to any competitor of Gaussian, Inc.  The licensee
 of this program is prohibited from giving any competitor of
 Gaussian, Inc. access to this program.  By using this program,
 the user acknowledges that Gaussian, Inc. is engaged in the
 business of creating and licensing software in the field of
 computational chemistry and represents and warrants to the
 licensee that it is not a competitor of Gaussian, Inc. and that
 it will not use this program in any manner prohibited above.
 ---------------------------------------------------------------
  

 Cite this work as:
 Gaussian Development Version, Revision J.30+,
 M. J. Frisch, G. W. Trucks, G. Scalmani, J. R. Cheeseman, X. Li, 
 J. Bloino, B. G. Janesko, A. V. Marenich, J. Zheng, F. Lipparini, 
 A. Jenkins, A. Liu, H. Liu, H. B. Schlegel, G. E. Scuseria, 
 M. A. Robb, V. Barone, G. A. Petersson, H. Nakatsuji, B. Mennucci, 
 C. Adamo, N. Rega, M. Caricato, H. P. Hratchian, J. V. Ortiz, 
 F. Pawlowski, A. F. Izmaylov, H. Hu, C. Liao, J. L. Sonnenberg, 
 D. Williams-Young, F. Ding, R. Gomperts, F. Egidi, J. Goings, 
 B. Peng, A. Petrone, T. Henderson, D. Ranasinghe, V. G. Zakrzewski, 
 J. Gao, G. Zheng, W. Liang, M. Hada, M. Ehara, K. Toyota, R. Fukuda, 
 J. Hasegawa, M. Ishida, T. Nakajima, Y. Honda, O. Kitao, H. Nakai, 
 T. Vreven, K. Throssell, J. A. Montgomery, Jr., J. E. Peralta, 
 F. Ogliaro, M. J. Bearpark, J. J. Heyd, E. N. Brothers, K. N. Kudin, 
 V. N. Staroverov, T. A. Keith, R. Kobayashi, J. Normand, 
 K. Raghavachari, A. P. Rendell, J. C. Burant, S. S. Iyengar, 
 M. Cossi, J. M. Millam, M. Klene, R. Cammi, R. L. Martin, O. Farkas, 
 J. B. Foresman, and D. J. Fox, Gaussian, Inc., Wallingford CT, 2024.
 
 *******************************************
 Gaussian DV:  ES64L-GDVRevJ.30+ 18-Dec-2024
                  2-Aug-2025 
 *******************************************
 %Chk=H2O_CAMB3LYP_631pGdp.chk
 ----------------------------------------------------------------------
 #P CAM-B3LYP chkbasis Geom=AllCheck Guess=Read Opt Freq SCF=(fermi, no
 varacc) int=superfinegrid
 ----------------------------------------------------------------------
 1/18=20,19=15,26=5,29=7,38=1/1,3;
 2/9=110,12=2/2;
 3/5=7,6=2,11=2,14=-4,25=1,30=1,67=1,71=1,74=-40,75=-7,116=-2/1,2,3;
 4/5=1/1;
 5/5=2,22=13,38=6/2;
 6/7=2,8=2,9=2,10=2,28=1/1;
 7//1,2,3,16;
 1/18=20,19=15,26=5/3(2);
 2/9=110/2;
 99//99;
 2/9=110/2;
 3/5=7,6=1,11=2,14=-2,25=1,30=1,71=1,74=-40,75=-7,82=7,187=7/1,2,3;
 4/5=5,16=3,69=1/1;
 5/5=2,22=13,38=1/2;
 7//1,2,3,16;
 1/18=20,19=15,26=5/3(-5);
 2/9=110/2;
 6/7=2,8=2,9=2,10=2,19=2,28=1/1;
 99/9=1/99;
 Leave Link    1 at Sat Aug  2 15:32:17 2025, MaxMem=           0 cpu:               1.1 elap:               0.1
 (Enter /home/hhratchian/gaussian/gdv-20250101-j30+/gdv/local/l101.exe)
 
  Hrant - IAPOps =                         0
  Hrant - IAPOp1 =                         0
  Hrant - IAPOp2 =                         0
  Hrant - DoAP   =   F
 
 Structure from the checkpoint file:  "H2O_CAMB3LYP_631pGdp.chk"
 -------------------------------
 Initial Stability Check for H2O
 -------------------------------
 Charge =     0 Multiplicity =     1
 Z-Matrix found in chk file.
 O,0,0.,0.,0.
 H,0,0.758602,0.,0.504284
 H,0,-0.758602,0.,0.504284
 
 Recover connectivity data from disk.
 Initializing the GIC definitions file.
 ITRead=  0  0  0
 MicOpt= -1 -1 -1
 NAtoms=      3 NQM=        3 NQMF=       0 NMMI=      0 NMMIF=      0
                NMic=       0 NMicF=      0.
                    Isotopes and Nuclear Properties:
 (Nuclear quadrupole moments (NQMom) in fm**2, nuclear magnetic moments (NMagM)
  in nuclear magnetons)

  Atom         1           2           3
 IAtWgt=          16           1           1
 AtmWgt=  15.9949146   1.0078250   1.0078250
 NucSpn=           0           1           1
 AtZEff=    5.600000    1.000000    1.000000
 NQMom=    0.0000000   0.0000000   0.0000000
 NMagM=    0.0000000   2.7928460   2.7928460
 AtZNuc=   8.0000000   1.0000000   1.0000000
 Leave Link  101 at Sat Aug  2 15:32:20 2025, MaxMem= 12348030976 cpu:               4.0 elap:               3.4
 (Enter /home/hhratchian/gaussian/gdv-20250101-j30+/gdv/l103.exe)

 GradGradGradGradGradGradGradGradGradGradGradGradGradGradGradGradGradGrad
 Berny optimization.
 Initialization pass.
                           ----------------------------
                           !    Initial Parameters    !
                           ! (Angstroms and Degrees)  !
 --------------------------                            --------------------------
 ! Name  Definition              Value          Derivative Info.                !
 --------------------------------------------------------------------------------
 ! R1    R(1,2)                  0.9109         estimate D2E/DX2                !
 ! R2    R(1,3)                  0.9109         estimate D2E/DX2                !
 ! A1    A(2,1,3)              112.7717         estimate D2E/DX2                !
 --------------------------------------------------------------------------------
 Trust Radius=3.00D-01 FncErr=1.00D-07 GrdErr=1.00D-07 EigMax=2.50D+02 EigMin=1.00D-04
 Number of steps in this run=     20 maximum allowed number of steps=    100.
 GradGradGradGradGradGradGradGradGradGradGradGradGradGradGradGradGradGrad

 Leave Link  103 at Sat Aug  2 15:32:20 2025, MaxMem= 12348030976 cpu:               0.1 elap:               0.0
 (Enter /home/hhratchian/gaussian/gdv-20250101-j30+/gdv/l202.exe)
                          Input orientation:                          
 ---------------------------------------------------------------------
 Center     Atomic      Atomic             Coordinates (Angstroms)
 Number     Number       Type             X           Y           Z
 ---------------------------------------------------------------------
      1          8           0       -0.000000   -0.000000    0.000000
      2          1           0        0.758602    0.000000    0.504284
      3          1           0       -0.758602   -0.000000    0.504284
 ---------------------------------------------------------------------
                    Distance matrix (angstroms):
                    1          2          3
     1  O    0.000000
     2  H    0.910922   0.000000
     3  H    0.910922   1.517204   0.000000
 Stoichiometry    H2O
 Framework group  C2V[C2(O),SGV(H2)]
 Deg. of freedom     2
 Full point group                 C2V     NOp   4
 RotChk:  IX=0 Diff= 6.38D-16
 Largest Abelian subgroup         C2V     NOp   4
 Largest concise Abelian subgroup C2      NOp   2
                         Standard orientation:                         
 ---------------------------------------------------------------------
 Center     Atomic      Atomic             Coordinates (Angstroms)
 Number     Number       Type             X           Y           Z
 ---------------------------------------------------------------------
      1          8           0       -0.000000   -0.000000    0.100857
      2          1           0       -0.000000    0.758602   -0.403427
      3          1           0       -0.000000   -0.758602   -0.403427
 ---------------------------------------------------------------------
 Rotational constants (GHZ):        1110.1894251         435.6864908         312.8935057
 Leave Link  202 at Sat Aug  2 15:32:20 2025, MaxMem= 12348030976 cpu:               2.6 elap:               0.1
 (Enter /home/hhratchian/gaussian/gdv-20250101-j30+/gdv/local/l301.exe)
 Basis read from chk: "H2O_CAMB3LYP_631pGdp.chk" (6D, 7F)
 No pseudopotential information found on chk file.
 There are    14 symmetry adapted cartesian basis functions of A1  symmetry.
 There are     2 symmetry adapted cartesian basis functions of A2  symmetry.
 There are     5 symmetry adapted cartesian basis functions of B1  symmetry.
 There are     8 symmetry adapted cartesian basis functions of B2  symmetry.
 There are    14 symmetry adapted basis functions of A1  symmetry.
 There are     2 symmetry adapted basis functions of A2  symmetry.
 There are     5 symmetry adapted basis functions of B1  symmetry.
 There are     8 symmetry adapted basis functions of B2  symmetry.
    29 basis functions,    46 primitive gaussians,    29 cartesian basis functions
     5 alpha electrons        5 beta electrons
       nuclear repulsion energy         9.6435792538 Hartrees.
 IExCor=   2004019 DFT=T Ex+Corr=CAM-B3LYP ScaHFX=  1.000000
 ScaDFX=  1.000000  1.000000  1.000000  0.810000  1.000000  0.000000
 ScaDFX=  0.000000  0.000000  0.000000  0.000000  0.000000  0.000000
 Grid=SuperFine IRanWt=     -1 IRanGd=            0 ICorTp=0 IEDCtl=  2004
 HFx  wShort=  0.000000 wLong=  0.330000 cFull=  0.190000 cShort=  0.000000 cLong=  0.460000
 DFx  wShort=  0.330000 wLong=  0.000000 cFull=  0.350000 cShort=  0.460000 cLong=  0.000000
 NAtoms=    3 NActive=    3 NUniq=    2 SFac= 2.25D+00 NAtFMM=   60 NAOKFM=F Big=F
 Integral buffers will be    131072 words long.
 Raffenetti 2 integral format.
 Two-electron integral symmetry is turned on.
 No density basis found on file 200724.
 Leave Link  301 at Sat Aug  2 15:32:20 2025, MaxMem= 12348030976 cpu:               0.2 elap:               0.0
 (Enter /home/hhratchian/gaussian/gdv-20250101-j30+/gdv/l302.exe)
 NPDir=0 NMtPBC=     1 NCelOv=     1 NCel=       1 NClECP=     1 NCelD=      1
         NCelK=      1 NCelE2=     1 NClLst=     1 CellRange=     0.0.
 One-electron integrals computed using PRISM.
 One-electron integral symmetry used in STVInt
 NBasis=    29 RedAO= T EigKep=  1.62D-02  NBF=    14     2     5     8
 NBsUse=    29 1.00D-06 EigRej= -1.00D+00 NBFU=    14     2     5     8
 Precomputing XC quadrature grid using
 IXCGrd=   9 Grid=SuperFine IRanWt=          -1 IRanGd=           0 AccXCQ= 0.00D+00.
 Generated NRdTot=       0 NPtTot=      190779 NUsed=           0 NTot=          64
 NSgBfM=    29    29    29    29    29 MxSgAt=     3 MxSgA2=     3 SizInc=   0.000
 NMBTot=     1458 MaxBatPerAtom=      126 MaxMicBPerAtom=      488 NBfPt=             4637730.
 Leave Link  302 at Sat Aug  2 15:32:21 2025, MaxMem= 12348030976 cpu:               5.3 elap:               0.2
 (Enter /home/hhratchian/gaussian/gdv-20250101-j30+/gdv/l303.exe)
 DipDrv:  MaxL=1.
 Leave Link  303 at Sat Aug  2 15:32:21 2025, MaxMem= 12348030976 cpu:               1.3 elap:               0.1
 (Enter /home/hhratchian/gaussian/gdv-20250101-j30+/gdv/l401.exe)
 Initial guess from the checkpoint file:  "H2O_CAMB3LYP_631pGdp.chk"
 B after Tr=    -0.000000    0.000000    0.000000
         Rot=    1.000000    0.000000    0.000000   -0.000000 Ang=   0.00 deg.
 AO Guess basis will be translated and rotated to current coordinates.
 JPrj=2 DoOrth=T DoCkMO=T.
 Initial guess orbital symmetries:
       Occupied  (A1) (A1) (B2) (A1) (B1)
       Virtual   (A1) (B2) (A1) (B1) (B2) (A1) (B2) (A1) (B2) (A1)
                 (B1) (A1) (A2) (A1) (B1) (B2) (A1) (B2) (B1) (A2)
                 (A1) (A1) (B2) (A1)
 The electronic state of the initial guess is 1-A1.
 Leave Link  401 at Sat Aug  2 15:32:21 2025, MaxMem= 12348030976 cpu:               3.3 elap:               0.1
 (Enter /home/hhratchian/gaussian/gdv-20250101-j30+/gdv/local/l502.exe)
 Keep R1 ints in memory in symmetry-blocked form, NReq=48859339.
 FoFCou: FMM=F IPFlag=           0 FMFlag=           0 FMFlg1=           0
         NFxFlg=           0 DoJE=F BraDBF=F KetDBF=F FulRan=T
         wScrn=  0.000000 ICntrl=       600 IOpCl=  0 I1Cent=           0 NGrid=           0
         NMat0=    1 NMatS0=    435 NMatT0=    0 NMatD0=    1 NMtDS0=    0 NMtDT0=    0
 Petite list used in FoFCou.
 Closed shell SCF:
 Using DIIS extrapolation, IDIIS=    10.
 NGot= 12348030976 LenX= 12347998860 LenY= 12347997578
 Requested convergence on RMS density matrix=1.00D-08 within 128 cycles.
 Requested convergence on MAX density matrix=1.00D-06.
 Requested convergence on             energy=1.00D-06.
 Level shift goal  0.100 maximum shift  0.100.
 No special actions if energy rises.
 Dynamic level shift is on during FON iterations.
 
  Hrant - CycOpn.
 

 Cycle   1  Pass 1  IDiag  1:
 E= -76.3993927333714    
 DIIS: error= 1.36D-08 at cycle   1 NSaved=   1.
 NSaved= 1 IEnMin= 1 EnMin= -76.3993927333714     IErMin= 1 ErrMin= 1.36D-08
 ErrMax= 1.36D-08  0.00D+00 EMaxC= 1.00D+00 BMatC= 1.70D-15 BMatP= 1.70D-15
 Rises=F IDIUse=1 WtCom= 1.00D+00 WtEn= 0.00D+00
 Coeff-Com:  0.100D+01
 Coeff:      0.100D+01
 Gap=     0.470 Goal=     0.100 Shift=    0.000
 RMSDP=1.63D-09 MaxDP=1.81D-08              OVMax= 1.22D-08

 SCF Done:  E(RCAM-B3LYP) =  -76.3993927334     A.U. after    1 cycles
            NFock=  1  Conv=0.16D-08     -V/T= 2.0064
 KE=          75.910528 PE=        -199.628886 EE=          37.675386
 Leave Link  502 at Sat Aug  2 15:32:21 2025, MaxMem= 12348030976 cpu:               7.1 elap:               0.2
 (Enter /home/hhratchian/gaussian/gdv-20250101-j30+/gdv/l601.exe)
 Copying SCF densities to generalized density rwf, IOpCl= 0 IROHF=0.
 
 **********************************************************************
 
               Population analysis using the SCF Density.
 
 **********************************************************************
 
 Orbital symmetries:
       Occupied  (A1) (A1) (B2) (A1) (B1)
       Virtual   (A1) (B2) (A1) (B1) (B2) (A1) (B2) (A1) (B2) (A1)
                 (B1) (A1) (A2) (A1) (B1) (B2) (A1) (B2) (B1) (A2)
                 (A1) (A1) (B2) (A1)
 The electronic state is 1-A1.
 Alpha  occ. eigenvalues --      -19.23124      -1.12008      -0.64560      -0.45473      -0.39335
 Alpha virt. eigenvalues --        0.07661       0.15452       0.19243       0.19343       0.28519
 Alpha virt. eigenvalues --        0.29658       1.02382       1.09071       1.13731       1.16275
 Alpha virt. eigenvalues --        1.17950       1.28489       1.56744       1.65622       1.72712
 Alpha virt. eigenvalues --        2.32078       2.37166       2.71976       2.73334       2.81856
 Alpha virt. eigenvalues --        3.20913       3.52091       3.63685       4.07747
          Condensed to atoms (all electrons):
               1          2          3
     1  O    8.102966   0.310270   0.310270
     2  H    0.310270   0.354415  -0.026438
     3  H    0.310270  -0.026438   0.354415
 Mulliken charges:
               1
     1  O   -0.723506
     2  H    0.361753
     3  H    0.361753
 Sum of Mulliken charges=  -0.00000
 Mulliken charges with hydrogens summed into heavy atoms:
               1
     1  O   -0.000000
 Electronic spatial extent (au):  <R**2>=             19.4619
 Charge=              0.0000 electrons
 Dipole moment (field-independent basis, Debye):
    X=             -0.0000    Y=             -0.0000    Z=             -2.0673  Tot=              2.0673
 Quadrupole moment (field-independent basis, Debye-Ang):
   XX=             -7.7788   YY=             -4.2012   ZZ=             -6.7144
   XY=              0.0000   XZ=              0.0000   YZ=             -0.0000
 Traceless Quadrupole moment (field-independent basis, Debye-Ang):
   XX=             -1.5473   YY=              2.0303   ZZ=             -0.4829
   XY=              0.0000   XZ=              0.0000   YZ=             -0.0000
 Octapole moment (field-independent basis, Debye-Ang**2):
  XXX=              0.0000  YYY=             -0.0000  ZZZ=             -1.5689  XYY=             -0.0000
  XXY=             -0.0000  XXZ=             -0.4865  XZZ=              0.0000  YZZ=              0.0000
  YYZ=             -1.3011  XYZ=             -0.0000
 Hexadecapole moment (field-independent basis, Debye-Ang**3):
 XXXX=             -7.8087 YYYY=             -5.9164 ZZZZ=             -7.8508 XXXY=             -0.0000
 XXXZ=             -0.0000 YYYX=              0.0000 YYYZ=             -0.0000 ZZZX=             -0.0000
 ZZZY=             -0.0000 XXYY=             -2.5750 XXZZ=             -2.6411 YYZZ=             -2.1129
 XXYZ=              0.0000 YYXZ=              0.0000 ZZXY=             -0.0000
 N-N=           9.643579 E-N=        -199.628886  KE=          75.910528
 Symmetry A1   KE=          67.731121
 Symmetry A2   KE=           0.000000
 Symmetry B1   KE=           4.457057
 Symmetry B2   KE=           3.722350
 No NMR shielding tensors so no spin-rotation constants.
 Leave Link  601 at Sat Aug  2 15:32:21 2025, MaxMem= 12348030976 cpu:               4.9 elap:               0.1
 (Enter /home/hhratchian/gaussian/gdv-20250101-j30+/gdv/l701.exe)
 ... and contract with generalized density number  0.
 Compute integral first derivatives.
 Leave Link  701 at Sat Aug  2 15:32:21 2025, MaxMem= 12348030976 cpu:               6.2 elap:               0.2
 (Enter /home/hhratchian/gaussian/gdv-20250101-j30+/gdv/l702.exe)
 L702 exits ... SP integral derivatives will be done elsewhere.
 Leave Link  702 at Sat Aug  2 15:32:21 2025, MaxMem= 12348030976 cpu:               1.3 elap:               0.1
 (Enter /home/hhratchian/gaussian/gdv-20250101-j30+/gdv/l703.exe)
 Integral derivatives from FoFJK, PRISM(SPDF).
 Compute integral first derivatives, UseDBF=F ICtDFT=           0.
 Calling FoFJK, ICntrl=      2127 FMM=F ISym2X=1 I1Cent= 0 IOpClX= 0 NMat=1 NMatS=1 NMatT=0.
 FoFJK:  IHMeth= 1 ICntrl=    2127 DoSepK=T KAlg= 0 I1Cent=           0 FoldK=F
 IRaf=         1 NMat=       1 IRICut=       1 DoRegI=T DoRafI=F ISym2E= 1 IDoP0=0 IntGTp=1.
 FoFCou: FMM=F IPFlag=           0 FMFlag=      100000 FMFlg1=         800
         NFxFlg=           0 DoJE=F BraDBF=F KetDBF=F FulRan=T
         wScrn=  0.000000 ICntrl=      2527 IOpCl=  0 I1Cent=           0 NGrid=           0
         NMat0=    1 NMatS0=      1 NMatT0=    0 NMatD0=    1 NMtDS0=    0 NMtDT0=    0
 Petite list used in FoFCou.
 Leave Link  703 at Sat Aug  2 15:32:22 2025, MaxMem= 12348030976 cpu:              10.6 elap:               0.3
 (Enter /home/hhratchian/gaussian/gdv-20250101-j30+/gdv/l716.exe)
 Dipole        =-5.50237717D-17 0.00000000D+00-8.13319312D-01
 ***** Axes restored to original set *****
 -------------------------------------------------------------------
 Center     Atomic                   Forces (Hartrees/Bohr)
 Number     Number              X              Y              Z
 -------------------------------------------------------------------
      1        8          -0.000000000   -0.000000000   -0.078299092
      2        1           0.047553216    0.000000000    0.039149546
      3        1          -0.047553216    0.000000000    0.039149546
 -------------------------------------------------------------------
 Cartesian Forces:  Max     0.078299092 RMS     0.039042339
 Leave Link  716 at Sat Aug  2 15:32:22 2025, MaxMem= 12348030976 cpu:               0.1 elap:               0.0
 (Enter /home/hhratchian/gaussian/gdv-20250101-j30+/gdv/l103.exe)

 GradGradGradGradGradGradGradGradGradGradGradGradGradGradGradGradGradGrad
 Berny optimization.
 FormGI is forming the generalized inverse of G from B-inverse, IUseBI=4.
 NTrRot=    -1 NTRed=     3 NAtoms=     3 NSkip=     0 NRank=     3 IsLin=F EigSml=8.5452D-01
 Internal  Forces:  Max     0.061274663 RMS     0.050418089
 Search for a local minimum.
 Step number   1 out of a maximum of   20
 All quantities printed in internal units (Hartrees-Bohrs-Radians)
 RMS Force = .50418D-01 SwitMx=.10000D-02 MixMth= 1
 Mixed Optimization -- RFO/linear search
 Second derivative matrix not updated -- first step.
 The second derivative matrix:
                          R1        R2        A1
           R1           0.67525
           R2           0.00000   0.67525
           A1           0.00000   0.00000   0.16000
 ITU=  0
     Eigenvalues ---    0.16000   0.67525   0.67525
 RFO step:  Lambda=-1.16130603D-02 EMin= 1.60000000D-01
 Linear search not attempted -- first point.
 GrdOpt: GIC=T ITstSp=  0 NP=   1 DidLin=F DidDIS=F IDoGRo=0 IDoRot=0
         ISwap=1 XLin= 0.000 DXMaxT= 0.300
 Iteration  1 RMS(Cart)=  0.03313127 RMS(Int)=  0.00191945
 Iteration  2 RMS(Cart)=  0.00119212 RMS(Int)=  0.00000197
 Iteration  3 RMS(Cart)=  0.00000083 RMS(Int)=  0.00000000
 ClnCor:  largest displacement from symmetrization is 1.54D-15 for atom     3.
 Variable       Old X    -DE/DX   Delta X   Delta X   Delta X     New X
                                 (Linear)    (Quad)   (Total)
    R1        1.72139   0.06127   0.00000   0.08921   0.08921   1.81060
    R2        1.72139   0.06127   0.00000   0.08921   0.08921   1.81060
    A1        1.96824  -0.01081   0.00000  -0.06297  -0.06297   1.90527
         Item               Value     Threshold  Converged?
 Maximum Force            0.061275     0.000450     NO 
 RMS     Force            0.050418     0.000300     NO 
 Maximum Displacement     0.064238     0.001800     NO 
 RMS     Displacement     0.056910     0.001200     NO 
 Predicted change in Energy=-5.921976D-03
 Lowest energy point so far.  Saving SCF results.
 GradGradGradGradGradGradGradGradGradGradGradGradGradGradGradGradGradGrad

 Leave Link  103 at Sat Aug  2 15:32:22 2025, MaxMem= 12348030976 cpu:               2.6 elap:               0.1
 (Enter /home/hhratchian/gaussian/gdv-20250101-j30+/gdv/l202.exe)
                          Input orientation:                          
 ---------------------------------------------------------------------
 Center     Atomic      Atomic             Coordinates (Angstroms)
 Number     Number       Type             X           Y           Z
 ---------------------------------------------------------------------
      1          8           0       -0.000000    0.000000   -0.033993
      2          1           0        0.780823    0.000000    0.521281
      3          1           0       -0.780823   -0.000000    0.521281
 ---------------------------------------------------------------------
                    Distance matrix (angstroms):
                    1          2          3
     1  O    0.000000
     2  H    0.958130   0.000000
     3  H    0.958130   1.561645   0.000000
 Stoichiometry    H2O
 Framework group  C2V[C2(O),SGV(H2)]
 Deg. of freedom     2
 Full point group                 C2V     NOp   4
 RotChk:  IX=0 Diff= 6.31D-16
 Largest Abelian subgroup         C2V     NOp   4
 Largest concise Abelian subgroup C2      NOp   2
                         Standard orientation:                         
 ---------------------------------------------------------------------
 Center     Atomic      Atomic             Coordinates (Angstroms)
 Number     Number       Type             X           Y           Z
 ---------------------------------------------------------------------
      1          8           0        0.000000    0.000000    0.111055
      2          1           0       -0.000000    0.780823   -0.444219
      3          1           0       -0.000000   -0.780823   -0.444219
 ---------------------------------------------------------------------
 Rotational constants (GHZ):         915.6582093         411.2417458         283.7869420
 Leave Link  202 at Sat Aug  2 15:32:22 2025, MaxMem= 12348030976 cpu:               1.3 elap:               0.0
 (Enter /home/hhratchian/gaussian/gdv-20250101-j30+/gdv/local/l301.exe)
 Basis read from rwf:  (6D, 7F)
 No pseudopotential information found on rwf file.
 There are    14 symmetry adapted cartesian basis functions of A1  symmetry.
 There are     2 symmetry adapted cartesian basis functions of A2  symmetry.
 There are     5 symmetry adapted cartesian basis functions of B1  symmetry.
 There are     8 symmetry adapted cartesian basis functions of B2  symmetry.
 There are    14 symmetry adapted basis functions of A1  symmetry.
 There are     2 symmetry adapted basis functions of A2  symmetry.
 There are     5 symmetry adapted basis functions of B1  symmetry.
 There are     8 symmetry adapted basis functions of B2  symmetry.
    29 basis functions,    46 primitive gaussians,    29 cartesian basis functions
     5 alpha electrons        5 beta electrons
       nuclear repulsion energy         9.1756933865 Hartrees.
 IExCor=   2004019 DFT=T Ex+Corr=CAM-B3LYP ScaHFX=  1.000000
 ScaDFX=  1.000000  1.000000  1.000000  0.810000  1.000000  0.000000
 ScaDFX=  0.000000  0.000000  0.000000  0.000000  0.000000  0.000000
 Grid=SuperFine IRanWt=     -1 IRanGd=            0 ICorTp=0 IEDCtl=  2004
 HFx  wShort=  0.000000 wLong=  0.330000 cFull=  0.190000 cShort=  0.000000 cLong=  0.460000
 DFx  wShort=  0.330000 wLong=  0.000000 cFull=  0.350000 cShort=  0.460000 cLong=  0.000000
 NAtoms=    3 NActive=    3 NUniq=    2 SFac= 2.25D+00 NAtFMM=   60 NAOKFM=F Big=F
 Integral buffers will be    131072 words long.
 Raffenetti 2 integral format.
 Two-electron integral symmetry is turned on.
 No density basis found on file    724.
 Leave Link  301 at Sat Aug  2 15:32:22 2025, MaxMem= 12348030976 cpu:               0.2 elap:               0.0
 (Enter /home/hhratchian/gaussian/gdv-20250101-j30+/gdv/l302.exe)
 NPDir=0 NMtPBC=     1 NCelOv=     1 NCel=       1 NClECP=     1 NCelD=      1
         NCelK=      1 NCelE2=     1 NClLst=     1 CellRange=     0.0.
 One-electron integrals computed using PRISM.
 One-electron integral symmetry used in STVInt
 NBasis=    29 RedAO= T EigKep=  1.78D-02  NBF=    14     2     5     8
 NBsUse=    29 1.00D-06 EigRej= -1.00D+00 NBFU=    14     2     5     8
 Precomputing XC quadrature grid using
 IXCGrd=   9 Grid=SuperFine IRanWt=          -1 IRanGd=           0 AccXCQ= 0.00D+00.
 Generated NRdTot=       0 NPtTot=      190867 NUsed=           0 NTot=          64
 NSgBfM=    29    29    29    29    29 MxSgAt=     3 MxSgA2=     3 SizInc=   0.000
 NMBTot=     1455 MaxBatPerAtom=      126 MaxMicBPerAtom=      486 NBfPt=             4644935.
 Leave Link  302 at Sat Aug  2 15:32:22 2025, MaxMem= 12348030976 cpu:               5.6 elap:               0.2
 (Enter /home/hhratchian/gaussian/gdv-20250101-j30+/gdv/l303.exe)
 DipDrv:  MaxL=1.
 Leave Link  303 at Sat Aug  2 15:32:22 2025, MaxMem= 12348030976 cpu:               1.4 elap:               0.1
 (Enter /home/hhratchian/gaussian/gdv-20250101-j30+/gdv/l401.exe)
 Initial guess from the checkpoint file:  "H2O_CAMB3LYP_631pGdp.chk"
 B after Tr=    -0.000000    0.000000    0.000000
         Rot=    1.000000    0.000000    0.000000    0.000000 Ang=   0.00 deg.
 AO Guess basis will be translated and rotated to current coordinates.
 JPrj=2 DoOrth=T DoCkMO=T.
 Initial guess orbital symmetries:
       Occupied  (A1) (A1) (B2) (A1) (B1)
       Virtual   (A1) (B2) (A1) (B1) (B2) (A1) (B2) (A1) (B2) (A1)
                 (B1) (A1) (A2) (A1) (B1) (B2) (A1) (B2) (B1) (A2)
                 (A1) (A1) (B2) (A1)
 The electronic state of the initial guess is 1-A1.
 Generating alternative initial guess.
 ExpMin= 8.45D-02 ExpMax= 5.48D+03 ExpMxC= 8.25D+02 IAcc=3 Grid=SuperFine AccDes= 0.00D+00
 Harris functional with IExCor=10009 and Grid=SuperFine diagonalized for initial guess.
 HarFok:  IExCor=   10009 AccDes= 0.00D+00 Grid=SuperFine IDoV= 1 UseB2=F ITyADJ=14 ICtDFT=  3500011
 FoFCou: FMM=F IPFlag=           0 FMFlag=      100000 FMFlg1=           0
         NFxFlg=           0 DoJE=T BraDBF=F KetDBF=T FulRan=T
         wScrn=  0.000000 ICntrl=       500 IOpCl=  0 I1Cent=   200000004 NGrid=           0
         NMat0=    1 NMatS0=      1 NMatT0=    0 NMatD0=    1 NMtDS0=    0 NMtDT0=    0
 Petite list used in FoFCou.
 Harris En= -76.3895073253657    
 Leave Link  401 at Sat Aug  2 15:32:22 2025, MaxMem= 12348030976 cpu:               7.7 elap:               0.2
 (Enter /home/hhratchian/gaussian/gdv-20250101-j30+/gdv/local/l502.exe)
 Keep R1 ints in memory in symmetry-blocked form, NReq=48859339.
 FoFCou: FMM=F IPFlag=           0 FMFlag=           0 FMFlg1=           0
         NFxFlg=           0 DoJE=F BraDBF=F KetDBF=F FulRan=T
         wScrn=  0.000000 ICntrl=       600 IOpCl=  0 I1Cent=           0 NGrid=           0
         NMat0=    1 NMatS0=    435 NMatT0=    0 NMatD0=    1 NMtDS0=    0 NMtDT0=    0
 Petite list used in FoFCou.
 Closed shell SCF:
 Using DIIS extrapolation, IDIIS=    10.
 NGot= 12348030976 LenX= 12347998860 LenY= 12347997578
 Requested convergence on RMS density matrix=1.00D-08 within 128 cycles.
 Requested convergence on MAX density matrix=1.00D-06.
 Requested convergence on             energy=1.00D-06.
 Level shift goal  0.100 maximum shift  0.100.
 No special actions if energy rises.
 Dynamic level shift is on during FON iterations.
 
  Hrant - CycOpn.
 

 Cycle   1  Pass 1  IDiag  1:
 E= -76.4038857855909    
 DIIS: error= 8.60D-03 at cycle   1 NSaved=   1.
 NSaved= 1 IEnMin= 1 EnMin= -76.4038857855909     IErMin= 1 ErrMin= 8.60D-03
 ErrMax= 8.60D-03  0.00D+00 EMaxC= 1.00D+00 BMatC= 7.25D-04 BMatP= 7.25D-04
 Rises=F IDIUse=1 WtCom= 1.00D+00 WtEn= 0.00D+00
 Coeff-Com:  0.100D+01
 Coeff:      0.100D+01
 Gap=     0.461 Goal=     0.100 Shift=    0.000
 T=  747. Gap= 0.453 NK=0 IS=    6 IE=   29 IFin=    5
          NO(<0.9)=   0  NV(>0.1)=   0      5.00e < EF      0.00e >EF  Err=0.0D+00
 GapD=    0.461 DampG=2.000 DampE=1.000 DampFc=2.0000 IDamp=-1.
 RMSDP=1.61D-03 MaxDP=1.16D-02              OVMax= 1.69D-02

 Cycle   2  Pass 1  IDiag  1:
 E= -76.4051472279273     Delta-E=       -0.001261442336 Rises=F Damp=F AM=F Ri=F Fa=F
 DIIS: error= 4.74D-03 at cycle   2 NSaved=   2.
 NSaved= 2 IEnMin= 2 EnMin= -76.4051472279273     IErMin= 2 ErrMin= 4.74D-03
 ErrMax= 4.74D-03  0.00D+00 EMaxC= 1.00D+00 BMatC= 2.42D-04 BMatP= 7.25D-04
 Rises=F IDIUse=1 WtCom= 1.00D+00 WtEn= 0.00D+00
 Coeff-Com:  0.296D+00 0.704D+00
 Coeff:      0.296D+00 0.704D+00
 Gap=     0.465 Goal=     0.100 Shift=    0.000
 T=  649. Gap= 0.465 NK=0 IS=    6 IE=   29 IFin=    5
          NO(<0.9)=   0  NV(>0.1)=   0      5.00e < EF      0.00e >EF  Err=0.0D+00
 GapD=    0.465 DampG=2.000 DampE=1.000 DampFc=2.0000 IDamp=-1.
 RMSDP=5.69D-04 MaxDP=7.92D-03 DE=-1.26D-03 OVMax= 8.32D-03

 Cycle   3  Pass 1  IDiag  1:
 E= -76.4053848784337     Delta-E=       -0.000237650506 Rises=F Damp=F AM=F Ri=F Fa=F
 DIIS: error= 2.38D-03 at cycle   3 NSaved=   3.
 NSaved= 3 IEnMin= 3 EnMin= -76.4053848784337     IErMin= 3 ErrMin= 2.38D-03
 ErrMax= 2.38D-03  0.00D+00 EMaxC= 1.00D+00 BMatC= 7.63D-05 BMatP= 2.42D-04
 Rises=F IDIUse=1 WtCom= 1.00D+00 WtEn= 0.00D+00
 Coeff-Com: -0.449D-01 0.354D+00 0.690D+00
 Coeff:     -0.449D-01 0.354D+00 0.690D+00
 Gap=     0.461 Goal=     0.100 Shift=    0.000
 T=  449. Gap= 0.461 NK=0 IS=    6 IE=   29 IFin=    5
          NO(<0.9)=   0  NV(>0.1)=   0      5.00e < EF      0.00e >EF  Err=0.0D+00
 GapD=    0.461 DampG=2.000 DampE=1.000 DampFc=2.0000 IDamp=-1.
 RMSDP=2.61D-04 MaxDP=3.03D-03 DE=-2.38D-04 OVMax= 3.73D-03

 Cycle   4  Pass 1  IDiag  1:
 E= -76.4054965670368     Delta-E=       -0.000111688603 Rises=F Damp=F AM=F Ri=F Fa=F
 DIIS: error= 1.17D-04 at cycle   4 NSaved=   4.
 NSaved= 4 IEnMin= 4 EnMin= -76.4054965670368     IErMin= 4 ErrMin= 1.17D-04
 ErrMax= 1.17D-04  0.00D+00 EMaxC= 1.00D+00 BMatC= 2.22D-07 BMatP= 7.63D-05
 Rises=F IDIUse=1 WtCom= 1.00D+00 WtEn= 0.00D+00
 Coeff-Com: -0.965D-02 0.113D-01 0.560D-01 0.942D+00
 Coeff:     -0.965D-02 0.113D-01 0.560D-01 0.942D+00
 Gap=     0.461 Goal=     0.100 Shift=    0.000
 RMSDP=4.04D-05 MaxDP=3.64D-04 DE=-1.12D-04 OVMax= 5.84D-04

 Cycle   5  Pass 1  IDiag  1:
 E= -76.4054973751484     Delta-E=       -0.000000808112 Rises=F Damp=F AM=F Ri=F Fa=F
 DIIS: error= 3.52D-05 at cycle   5 NSaved=   5.
 NSaved= 5 IEnMin= 5 EnMin= -76.4054973751484     IErMin= 5 ErrMin= 3.52D-05
 ErrMax= 3.52D-05  0.00D+00 EMaxC= 1.00D+00 BMatC= 8.76D-09 BMatP= 2.22D-07
 Rises=F IDIUse=1 WtCom= 1.00D+00 WtEn= 0.00D+00
 Coeff-Com:  0.218D-02-0.175D-01-0.338D-01-0.373D-01 0.109D+01
 Coeff:      0.218D-02-0.175D-01-0.338D-01-0.373D-01 0.109D+01
 Gap=     0.461 Goal=     0.100 Shift=    0.000
 RMSDP=1.47D-05 MaxDP=1.62D-04 DE=-8.08D-07 OVMax= 2.13D-04

 Cycle   6  Pass 1  IDiag  1:
 E= -76.4054974304139     Delta-E=       -0.000000055266 Rises=F Damp=F AM=F Ri=F Fa=F
 DIIS: error= 3.92D-06 at cycle   6 NSaved=   6.
 NSaved= 6 IEnMin= 6 EnMin= -76.4054974304139     IErMin= 6 ErrMin= 3.92D-06
 ErrMax= 3.92D-06  0.00D+00 EMaxC= 1.00D+00 BMatC= 1.14D-10 BMatP= 8.76D-09
 Rises=F IDIUse=1 WtCom= 1.00D+00 WtEn= 0.00D+00
 Coeff-Com: -0.104D-03 0.183D-02 0.347D-02-0.126D-01-0.134D+00 0.114D+01
 Coeff:     -0.104D-03 0.183D-02 0.347D-02-0.126D-01-0.134D+00 0.114D+01
 Gap=     0.461 Goal=     0.100 Shift=    0.000
 RMSDP=1.81D-06 MaxDP=1.82D-05 DE=-5.53D-08 OVMax= 2.67D-05

 Cycle   7  Pass 1  IDiag  1:
 E= -76.4054974312520     Delta-E=       -0.000000000838 Rises=F Damp=F AM=F Ri=F Fa=F
 DIIS: error= 3.48D-07 at cycle   7 NSaved=   7.
 NSaved= 7 IEnMin= 7 EnMin= -76.4054974312520     IErMin= 7 ErrMin= 3.48D-07
 ErrMax= 3.48D-07  0.00D+00 EMaxC= 1.00D+00 BMatC= 1.18D-12 BMatP= 1.14D-10
 Rises=F IDIUse=1 WtCom= 1.00D+00 WtEn= 0.00D+00
 Coeff-Com: -0.862D-06-0.136D-03-0.296D-03 0.220D-02 0.131D-01-0.208D+00
 Coeff-Com:  0.119D+01
 Coeff:     -0.862D-06-0.136D-03-0.296D-03 0.220D-02 0.131D-01-0.208D+00
 Coeff:      0.119D+01
 Gap=     0.461 Goal=     0.100 Shift=    0.000
 RMSDP=1.90D-07 MaxDP=1.91D-06 DE=-8.38D-10 OVMax= 2.67D-06

 Cycle   8  Pass 1  IDiag  1:
 E= -76.4054974312609     Delta-E=       -0.000000000009 Rises=F Damp=F AM=F Ri=F Fa=F
 DIIS: error= 2.48D-08 at cycle   8 NSaved=   8.
 NSaved= 8 IEnMin= 8 EnMin= -76.4054974312609     IErMin= 8 ErrMin= 2.48D-08
 ErrMax= 2.48D-08  0.00D+00 EMaxC= 1.00D+00 BMatC= 7.80D-15 BMatP= 1.18D-12
 Rises=F IDIUse=1 WtCom= 1.00D+00 WtEn= 0.00D+00
 Coeff-Com:  0.112D-05-0.489D-05 0.290D-05-0.570D-04-0.158D-03 0.105D-01
 Coeff-Com: -0.114D+00 0.110D+01
 Coeff:      0.112D-05-0.489D-05 0.290D-05-0.570D-04-0.158D-03 0.105D-01
 Coeff:     -0.114D+00 0.110D+01
 Gap=     0.461 Goal=     0.100 Shift=    0.000
 RMSDP=1.35D-08 MaxDP=1.05D-07 DE=-8.92D-12 OVMax= 1.17D-07

 Cycle   9  Pass 1  IDiag  1:
 E= -76.4054974312609     Delta-E=        0.000000000000 Rises=F Damp=F AM=F Ri=F Fa=F
 DIIS: error= 1.25D-09 at cycle   9 NSaved=   9.
 NSaved= 9 IEnMin= 8 EnMin= -76.4054974312609     IErMin= 9 ErrMin= 1.25D-09
 ErrMax= 1.25D-09  0.00D+00 EMaxC= 1.00D+00 BMatC= 3.23D-17 BMatP= 7.80D-15
 Rises=F IDIUse=1 WtCom= 1.00D+00 WtEn= 0.00D+00
 Coeff-Com: -0.771D-07 0.455D-06-0.312D-06-0.197D-05 0.334D-04-0.953D-03
 Coeff-Com:  0.114D-01-0.141D+00 0.113D+01
 Coeff:     -0.771D-07 0.455D-06-0.312D-06-0.197D-05 0.334D-04-0.953D-03
 Coeff:      0.114D-01-0.141D+00 0.113D+01
 Gap=     0.461 Goal=     0.100 Shift=    0.000
 RMSDP=7.36D-10 MaxDP=6.25D-09 DE= 0.00D+00 OVMax= 7.46D-09

 SCF Done:  E(RCAM-B3LYP) =  -76.4054974313     A.U. after    9 cycles
            NFock=  9  Conv=0.74D-09     -V/T= 2.0089
 KE=          75.728382 PE=        -198.627331 EE=          37.317759
 Leave Link  502 at Sat Aug  2 15:32:23 2025, MaxMem= 12348030976 cpu:              13.8 elap:               0.3
 (Enter /home/hhratchian/gaussian/gdv-20250101-j30+/gdv/l701.exe)
 ... and contract with generalized density number  0.
 Compute integral first derivatives.
 Leave Link  701 at Sat Aug  2 15:32:23 2025, MaxMem= 12348030976 cpu:               5.6 elap:               0.2
 (Enter /home/hhratchian/gaussian/gdv-20250101-j30+/gdv/l702.exe)
 L702 exits ... SP integral derivatives will be done elsewhere.
 Leave Link  702 at Sat Aug  2 15:32:23 2025, MaxMem= 12348030976 cpu:               0.1 elap:               0.0
 (Enter /home/hhratchian/gaussian/gdv-20250101-j30+/gdv/l703.exe)
 Integral derivatives from FoFJK, PRISM(SPDF).
 Compute integral first derivatives, UseDBF=F ICtDFT=           0.
 Calling FoFJK, ICntrl=      2127 FMM=F ISym2X=1 I1Cent= 0 IOpClX= 0 NMat=1 NMatS=1 NMatT=0.
 FoFJK:  IHMeth= 1 ICntrl=    2127 DoSepK=T KAlg= 0 I1Cent=           0 FoldK=F
 IRaf=         1 NMat=       1 IRICut=       1 DoRegI=T DoRafI=F ISym2E= 1 IDoP0=0 IntGTp=1.
 FoFCou: FMM=F IPFlag=           0 FMFlag=      100000 FMFlg1=         800
         NFxFlg=           0 DoJE=F BraDBF=F KetDBF=F FulRan=T
         wScrn=  0.000000 ICntrl=      2527 IOpCl=  0 I1Cent=           0 NGrid=           0
         NMat0=    1 NMatS0=      1 NMatT0=    0 NMatD0=    1 NMtDS0=    0 NMtDT0=    0
 Petite list used in FoFCou.
 Leave Link  703 at Sat Aug  2 15:32:23 2025, MaxMem= 12348030976 cpu:               9.8 elap:               0.3
 (Enter /home/hhratchian/gaussian/gdv-20250101-j30+/gdv/l716.exe)
 Dipole        =-5.82551658D-17 1.11022302D-15-8.52974526D-01
 ***** Axes restored to original set *****
 -------------------------------------------------------------------
 Center     Atomic                   Forces (Hartrees/Bohr)
 Number     Number              X              Y              Z
 -------------------------------------------------------------------
      1        8          -0.000000000   -0.000000000   -0.010953158
      2        1           0.000974678    0.000000000    0.005476579
      3        1          -0.000974678    0.000000000    0.005476579
 -------------------------------------------------------------------
 Cartesian Forces:  Max     0.010953158 RMS     0.004495152
 Leave Link  716 at Sat Aug  2 15:32:23 2025, MaxMem= 12348030976 cpu:               1.3 elap:               0.1
 (Enter /home/hhratchian/gaussian/gdv-20250101-j30+/gdv/l103.exe)

 GradGradGradGradGradGradGradGradGradGradGradGradGradGradGradGradGradGrad
 Berny optimization.
 Using GEDIIS/GDIIS optimizer.
 FormGI is forming the generalized inverse of G from B-inverse, IUseBI=4.
 NTrRot=    -1 NTRed=     3 NAtoms=     3 NSkip=     0 NRank=     3 IsLin=F EigSml=7.9766D-01
 Internal  Forces:  Max     0.007058173 RMS     0.005206119
 Search for a local minimum.
 Step number   2 out of a maximum of   20
 All quantities printed in internal units (Hartrees-Bohrs-Radians)
 RMS Force = .52061D-02 SwitMx=.10000D-02 MixMth= 1
 Mixed Optimization -- RFO/linear search
 Update second derivatives using D2CorX and points    1    2
 DE= -6.10D-03 DEPred=-5.92D-03 R= 1.03D+00
 TightC=F SS=  1.41D+00  RLast= 1.41D-01 DXNew= 5.0454D-01 4.2301D-01
 Trust test= 1.03D+00 RLast= 1.41D-01 DXMaxT set to 4.23D-01
 The second derivative matrix:
                          R1        R2        A1
           R1           0.67039
           R2          -0.00486   0.67039
           A1           0.03279   0.03279   0.15242
 ITU=  1  0
 Use linear search instead of GDIIS.
     Eigenvalues ---    0.14827   0.66968   0.67525
 RFO step:  Lambda=-3.54862819D-04 EMin= 1.48268143D-01
 Quartic linear search produced a step of  0.13349.
 GrdOpt: GIC=T ITstSp=  0 NP=   2 DidLin=T DidDIS=F IDoGRo=0 IDoRot=0
         ISwap=1 XLin= 0.133 DXMaxT= 0.423
 Iteration  1 RMS(Cart)=  0.01613941 RMS(Int)=  0.00060148
 Iteration  2 RMS(Cart)=  0.00035189 RMS(Int)=  0.00000008
 Iteration  3 RMS(Cart)=  0.00000004 RMS(Int)=  0.00000000
 ClnCor:  largest displacement from symmetrization is 4.39D-15 for atom     1.
 Variable       Old X    -DE/DX   Delta X   Delta X   Delta X     New X
                                 (Linear)    (Quad)   (Total)
    R1        1.81060   0.00397   0.01191  -0.00156   0.01035   1.82096
    R2        1.81060   0.00397   0.01191  -0.00156   0.01035   1.82096
    A1        1.90527  -0.00706  -0.00841  -0.04731  -0.05572   1.84955
         Item               Value     Threshold  Converged?
 Maximum Force            0.007058     0.000450     NO 
 RMS     Force            0.005206     0.000300     NO 
 Maximum Displacement     0.031285     0.001800     NO 
 RMS     Displacement     0.028259     0.001200     NO 
 Predicted change in Energy=-2.053248D-04
 Lowest energy point so far.  Saving SCF results.
 GradGradGradGradGradGradGradGradGradGradGradGradGradGradGradGradGradGrad

 Leave Link  103 at Sat Aug  2 15:32:23 2025, MaxMem= 12348030976 cpu:               1.4 elap:               0.1
 (Enter /home/hhratchian/gaussian/gdv-20250101-j30+/gdv/l202.exe)
                          Input orientation:                          
 ---------------------------------------------------------------------
 Center     Atomic      Atomic             Coordinates (Angstroms)
 Number     Number       Type             X           Y           Z
 ---------------------------------------------------------------------
      1          8           0        0.000000    0.000000   -0.050548
      2          1           0        0.769427    0.000000    0.529558
      3          1           0       -0.769427   -0.000000    0.529558
 ---------------------------------------------------------------------
                    Distance matrix (angstroms):
                    1          2          3
     1  O    0.000000
     2  H    0.963608   0.000000
     3  H    0.963608   1.538854   0.000000
 Stoichiometry    H2O
 Framework group  C2V[C2(O),SGV(H2)]
 Deg. of freedom     2
 Full point group                 C2V     NOp   4
 RotChk:  IX=0 Diff= 1.06D-15
 Largest Abelian subgroup         C2V     NOp   4
 Largest concise Abelian subgroup C2      NOp   2
                         Standard orientation:                         
 ---------------------------------------------------------------------
 Center     Atomic      Atomic             Coordinates (Angstroms)
 Number     Number       Type             X           Y           Z
 ---------------------------------------------------------------------
      1          8           0        0.000000   -0.000000    0.116021
      2          1           0        0.000000    0.769427   -0.464085
      3          1           0       -0.000000   -0.769427   -0.464085
 ---------------------------------------------------------------------
 Rotational constants (GHZ):         838.9423037         423.5136767         281.4383591
[...]
 (Enter /home/hhratchian/gaussian/gdv-20250101-j30+/gdv/local/l301.exe)
 Basis read from chk: "H2O_CAMB3LYP_631pGdp-stab.chk" (6D, 7F)
 No pseudopotential information found on chk file.
 There are    14 symmetry adapted cartesian basis functions of A1  symmetry.
 There are     2 symmetry adapted cartesian basis functions of A2  symmetry.
 There are     5 symmetry adapted cartesian basis functions of B1  symmetry.
 There are     8 symmetry adapted cartesian basis functions of B2  symmetry.
 There are    14 symmetry adapted basis functions of A1  symmetry.
 There are     2 symmetry adapted basis functions of A2  symmetry.
 There are     5 symmetry adapted basis functions of B1  symmetry.
 There are     8 symmetry adapted basis functions of B2  symmetry.
    29 basis functions,    46 primitive gaussians,    29 cartesian basis functions
     5 alpha electrons        5 beta electrons
       nuclear repulsion energy         9.1327121001 Hartrees.
 IExCor=   2004019 DFT=T Ex+Corr=CAM-B3LYP ScaHFX=  1.000000
 ScaDFX=  1.000000  1.000000  1.000000  0.810000  1.000000  0.000000
 ScaDFX=  0.000000  0.000000  0.000000  0.000000  0.000000  0.000000
 Grid=UltraFine IRanWt=     -1 IRanGd=            0 ICorTp=0 IEDCtl=  2004
 HFx  wShort=  0.000000 wLong=  0.330000 cFull=  0.190000 cShort=  0.000000 cLong=  0.460000
 DFx  wShort=  0.330000 wLong=  0.000000 cFull=  0.350000 cShort=  0.460000 cLong=  0.000000
 NAtoms=    3 NActive=    3 NUniq=    2 SFac= 2.25D+00 NAtFMM=   60 NAOKFM=F Big=F
 Integral buffers will be    131072 words long.
 Raffenetti 2 integral format.
 Two-electron integral symmetry is turned on.
 No density basis found on file 200724.
 Leave Link  301 at Sat Aug  2 15:32:32 2025, MaxMem= 12348030976 cpu:               0.2 elap:               0.0
 (Enter /home/hhratchian/gaussian/gdv-20250101-j30+/gdv/l302.exe)
 NPDir=0 NMtPBC=     1 NCelOv=     1 NCel=       1 NClECP=     1 NCelD=      1
         NCelK=      1 NCelE2=     1 NClLst=     1 CellRange=     0.0.
 One-electron integrals computed using PRISM.
 One-electron integral symmetry used in STVInt
 NBasis=    29 RedAO= T EigKep=  1.75D-02  NBF=    14     2     5     8
 NBsUse=    29 1.00D-06 EigRej= -1.00D+00 NBFU=    14     2     5     8
 Precomputing XC quadrature grid using
 IXCGrd=   9 Grid=UltraFine IRanWt=          -1 IRanGd=           0 AccXCQ= 0.00D+00.
 Generated NRdTot=       0 NPtTot=       69788 NUsed=           0 NTot=          64
 NSgBfM=    29    29    29    29    29 MxSgAt=     3 MxSgA2=     3 SizInc=   0.000
 NMBTot=      708 MaxBatPerAtom=       83 MaxMicBPerAtom=      245 NBfPt=             1709625.
 Leave Link  302 at Sat Aug  2 15:32:32 2025, MaxMem= 12348030976 cpu:               4.5 elap:               0.2
 (Enter /home/hhratchian/gaussian/gdv-20250101-j30+/gdv/l303.exe)
 DipDrv:  MaxL=1.
 Leave Link  303 at Sat Aug  2 15:32:32 2025, MaxMem= 12348030976 cpu:               0.2 elap:               0.0
 (Enter /home/hhratchian/gaussian/gdv-20250101-j30+/gdv/l401.exe)
 Initial guess from the checkpoint file:  "H2O_CAMB3LYP_631pGdp-stab.chk"
 B after Tr=     0.000000   -0.000000   -0.000000
         Rot=    1.000000    0.000000   -0.000000   -0.000000 Ang=   0.00 deg.
 AO Guess basis will be translated and rotated to current coordinates.
 JPrj=2 DoOrth=T DoCkMO=T.
 Initial guess orbital symmetries:
       Occupied  (A1) (A1) (B2) (A1) (B1)
       Virtual   (A1) (B2) (A1) (B1) (B2) (A1) (B2) (A1) (B2) (B1)
                 (A1) (A1) (A2) (A1) (B1) (A1) (B2) (B2) (A2) (B1)
                 (A1) (A1) (B2) (A1)
 The electronic state of the initial guess is 1-A1.
 Leave Link  401 at Sat Aug  2 15:32:32 2025, MaxMem= 12348030976 cpu:               0.7 elap:               0.1
 (Enter /home/hhratchian/gaussian/gdv-20250101-j30+/gdv/local/l502.exe)
 Keep R1 ints in memory in symmetry-blocked form, NReq=48637915.
 FoFCou: FMM=F IPFlag=           0 FMFlag=           0 FMFlg1=           0
         NFxFlg=           0 DoJE=F BraDBF=F KetDBF=F FulRan=T
         wScrn=  0.000000 ICntrl=       600 IOpCl=  0 I1Cent=           0 NGrid=           0
         NMat0=    1 NMatS0=    435 NMatT0=    0 NMatD0=    1 NMtDS0=    0 NMtDT0=    0
 Petite list used in FoFCou.
 Closed shell SCF:
 Using DIIS extrapolation, IDIIS=    10.
 NGot= 12348030976 LenX= 12347998860 LenY= 12347997578
 Requested convergence on RMS density matrix=1.00D-08 within 128 cycles.
 Requested convergence on MAX density matrix=1.00D-06.
 Requested convergence on             energy=1.00D-06.
 Level shift goal  0.100 maximum shift  0.100.
 No special actions if energy rises.
 Dynamic level shift is on during FON iterations.
 
  Hrant - CycOpn.
 

 Cycle   1  Pass 1  IDiag  1:
 E= -76.4057187328665    
 DIIS: error= 1.35D-08 at cycle   1 NSaved=   1.
 NSaved= 1 IEnMin= 1 EnMin= -76.4057187328665     IErMin= 1 ErrMin= 1.35D-08
 ErrMax= 1.35D-08  0.00D+00 EMaxC= 1.00D+00 BMatC= 1.64D-15 BMatP= 1.64D-15
 Rises=F IDIUse=1 WtCom= 1.00D+00 WtEn= 0.00D+00
 Coeff-Com:  0.100D+01
 Coeff:      0.100D+01
 Gap=     0.460 Goal=     0.100 Shift=    0.000
 RMSDP=1.26D-09 MaxDP=1.48D-08              OVMax= 1.35D-08

 SCF Done:  E(RCAM-B3LYP) =  -76.4057187329     A.U. after    1 cycles
            NFock=  1  Conv=0.13D-08     -V/T= 2.0091
 KE=          75.716266 PE=        -198.533220 EE=          37.278522
 Leave Link  502 at Sat Aug  2 15:32:32 2025, MaxMem= 12348030976 cpu:               8.8 elap:               0.2
 (Enter /home/hhratchian/gaussian/gdv-20250101-j30+/gdv/l601.exe)
 Copying SCF densities to generalized density rwf, IOpCl= 0 IROHF=0.
 
 **********************************************************************
 
               Population analysis using the SCF Density.
 
 **********************************************************************
 
 Orbital symmetries:
       Occupied  (A1) (A1) (B2) (A1) (B1)
       Virtual   (A1) (B2) (A1) (B1) (B2) (A1) (B2) (A1) (B2) (B1)
                 (A1) (A1) (A2) (A1) (B1) (A1) (B2) (B2) (A2) (B1)
                 (A1) (A1) (B2) (A1)
 The electronic state is 1-A1.
 Alpha  occ. eigenvalues --      -19.24105      -1.10090      -0.61152      -0.46131      -0.38968
 Alpha virt. eigenvalues --        0.06987       0.15598       0.19240       0.19383       0.25499
 Alpha virt. eigenvalues --        0.28934       0.96886       1.05504       1.15138       1.17903
 Alpha virt. eigenvalues --        1.19094       1.29359       1.57424       1.61148       1.70480
 Alpha virt. eigenvalues --        2.30808       2.31529       2.58190       2.71415       2.72046
 Alpha virt. eigenvalues --        3.10472       3.39660       3.58581       3.99603
          Condensed to atoms (all electrons):
               1          2          3
     1  O    8.149630   0.286075   0.286075
     2  H    0.286075   0.377546  -0.024512
     3  H    0.286075  -0.024512   0.377546
 Mulliken charges:
               1
     1  O   -0.721781
     2  H    0.360890
     3  H    0.360890
 Sum of Mulliken charges=   0.00000
 Mulliken charges with hydrogens summed into heavy atoms:
               1
     1  O    0.000000
 Electronic spatial extent (au):  <R**2>=             20.1370
 Charge=              0.0000 electrons
 Dipole moment (field-independent basis, Debye):
    X=             -0.0000    Y=             -0.0000    Z=             -2.2233  Tot=              2.2233
 Quadrupole moment (field-independent basis, Debye-Ang):
   XX=             -7.9003   YY=             -4.3502   ZZ=             -6.5624
   XY=              0.0000   XZ=              0.0000   YZ=              0.0000
 Traceless Quadrupole moment (field-independent basis, Debye-Ang):
   XX=             -1.6293   YY=              1.9208   ZZ=             -0.2915
   XY=              0.0000   XZ=              0.0000   YZ=              0.0000
 Octapole moment (field-independent basis, Debye-Ang**2):
  XXX=              0.0000  YYY=             -0.0000  ZZZ=             -1.6491  XYY=             -0.0000
  XXY=             -0.0000  XXZ=             -0.4885  XZZ=             -0.0000  YZZ=              0.0000
  YYZ=             -1.4381  XYZ=             -0.0000
 Hexadecapole moment (field-independent basis, Debye-Ang**3):
 XXXX=             -7.9856 YYYY=             -6.4700 ZZZZ=             -8.1765 XXXY=             -0.0000
 XXXZ=             -0.0000 YYYX=              0.0000 YYYZ=              0.0000 ZZZX=             -0.0000
 ZZZY=             -0.0000 XXYY=             -2.7043 XXZZ=             -2.7451 YYZZ=             -2.1273
 XXYZ=             -0.0000 YYXZ=              0.0000 ZZXY=              0.0000
 N-N=           9.132712 E-N=        -198.533219  KE=          75.716266
 Symmetry A1   KE=          67.636461
 Symmetry A2   KE=           0.000000
 Symmetry B1   KE=           4.461822
 Symmetry B2   KE=           3.617983
 No NMR shielding tensors so no spin-rotation constants.
 Leave Link  601 at Sat Aug  2 15:32:32 2025, MaxMem= 12348030976 cpu:               4.9 elap:               0.1
 (Enter /home/hhratchian/gaussian/gdv-20250101-j30+/gdv/l801.exe)
 DoSCS=F DFT=T ScalE2(SS,OS)=  1.000000  1.000000
 Range of M.O.s used for correlation:     1    29
 NBasis=    29 NAE=     5 NBE=     5 NFC=     0 NFV=     0
 NROrb=     29 NOA=     5 NOB=     5 NVA=    24 NVB=    24
 Leave Link  801 at Sat Aug  2 15:32:32 2025, MaxMem= 12348030976 cpu:               0.1 elap:               0.0
 (Enter /home/hhratchian/gaussian/gdv-20250101-j30+/gdv/l914.exe)
 RHF ground state
 Doing stability rather than CIS.
 DoSCS=F DFT=T ScalE2(SS,OS)=  1.000000  1.000000
   ScalD2(USS,UOS,TSS,TOS,w)=  1.000000  1.000000  1.000000  1.000000  1.000000
 Keep R1 and R2 ints in memory in symmetry-blocked form, NReq=58362238.
 FoFCou: FMM=F IPFlag=           0 FMFlag=           0 FMFlg1=           0
         NFxFlg=           0 DoJE=F BraDBF=F KetDBF=F FulRan=T
         wScrn=  0.000000 ICntrl=       600 IOpCl=  0 I1Cent=           0 NGrid=           0
         NMat0=    1 NMatS0=    435 NMatT0=    0 NMatD0=    1 NMtDS0=    0 NMtDT0=    0
 Petite list used in FoFCou.
 MDV= 12348030976 DFT=T IDoStb=1 Mixed=T DoRPA=F DoScal=F NonHer=F
 Making orbital integer symmetry assigments:
 Orbital symmetries:
       Occupied  (A1) (A1) (B2) (A1) (B1)
       Virtual   (A1) (B2) (A1) (B1) (B2) (A1) (B2) (A1) (B2) (B1)
                 (A1) (A1) (A2) (A1) (B1) (A1) (B2) (B2) (A2) (B1)
                 (A1) (A1) (B2) (A1)
 The electronic state is 1-A1.
    24 initial guesses have been made.
 Convergence on wavefunction:    0.001000000000000
 Davidson Disk Diagonalization:  ConvIn= 1.00D-03 SkipCon=T Conv= 1.00D-03.
 Max sub-space:   480 initial roots:    24 roots to seek:     1 dimension of matrix:          240
 Iteration     1 Dimension    24 NMult     0 NNew     24
 CISAX will form    24 AO SS matrices at one time.
 NMat=    24 NSing=    12 JSym2X=-1.
 New state      1 was old state      2
 Excitation Energies [eV] at current iteration:
 Root      1 :     7.147875090773207
 Root      2 :     8.409153065607111
 Root      3 :     9.293361887678703
 Root      4 :     9.720918712066727
 Root      5 :    10.412900282759445
 Root      6 :    10.512778220771978
 Root      7 :    10.647053378304573
 Root      8 :    11.236403084266486
 Root      9 :    11.341809966408549
 Root     10 :    11.767149595344645
 Root     11 :    12.550320489195732
 Root     12 :    12.644652670842657
 Root     13 :    12.798559693176475
 Root     14 :    12.826607728733249
 Root     15 :    12.838201591696745
 Root     16 :    13.042961712886987
 Root     17 :    13.186945386555822
 Root     18 :    13.536756493232268
 Root     19 :    13.579088498074944
 Root     20 :    14.140331995991122
 Root     21 :    14.507760130628649
 Root     22 :    14.712526485905769
 Root     23 :    16.823087724215551
 Root     24 :    19.251181635275078
 Iteration     2 Dimension    48 NMult    24 NNew     24
 CISAX will form    24 AO SS matrices at one time.
 NMat=    24 NSing=    12 JSym2X=-1.
 Root      1 not converged, maximum delta is    0.041011140523731
 Excitation Energies [eV] at current iteration:
 Root      1 :     6.967321841387179   Change is   -0.180553249386027
 Root      2 :     8.361838972163513   Change is   -0.047314093443599
 Root      3 :     8.795438441557575   Change is   -0.497923446121128
 Root      4 :     9.482132901077833   Change is   -0.238785810988893
 Root      5 :    10.278092423074487   Change is   -0.368960955230086
 Root      6 :    10.372347660051092   Change is   -0.040552622708351
 Root      7 :    10.394253867692743   Change is   -0.118524353079233
 Root      8 :    10.738847303817426   Change is   -0.602962662591124
 Root      9 :    11.086305771982959   Change is   -0.150097312283527
 Root     10 :    11.726048778159971   Change is   -0.041100817184675
 Root     11 :    12.346769378395242   Change is   -0.451790314781233
 Root     12 :    12.454037311690222   Change is   -0.096283177505510
 Root     13 :    12.495077191393460   Change is   -0.343124400303285
 Root     14 :    12.554778636283919   Change is   -0.089874034558738
 Root     15 :    12.674899418184790   Change is   -0.512045968371032
 Root     16 :    12.790911112379863   Change is   -0.035696616353387
 Root     17 :    12.909459342415033   Change is   -0.133502370471953
 Root     18 :    13.454636946124138   Change is   -0.082119547108130
 Root     19 :    13.549764806024651   Change is   -0.029323692050291
 Root     20 :    13.982395240816615   Change is   -0.157936755174507
 Root     21 :    14.410827127335629   Change is   -0.301699358570141
 Root     22 :    14.426741056804621   Change is   -0.081019073824026
 Root     23 :    14.623920717114780   Change is   -4.627260918160297
 Root     24 :    15.915455821403633   Change is   -0.907631902811917
 Iteration     3 Dimension    54 NMult    48 NNew      6
 CISAX will form     6 AO SS matrices at one time.
 NMat=     6 NSing=     3 JSym2X=-1.
 Root      1 has converged.
 Excitation Energies [eV] at current iteration:
 Root      1 :     6.967068712226929   Change is   -0.000253129160250
 Root      2 :     8.361715893731372   Change is   -0.000123078432142
 Root      3 :     8.742045302450093   Change is   -0.053393139107483
 Root      4 :     9.479226366756563   Change is   -0.002906534321270
 Root      5 :    10.371980796943220   Change is   -0.000366863107874
 Root      6 :    10.383095290549035   Change is   -0.011158577143709
 Convergence achieved on expansion vectors.
 1PDM for each excited state written to RWF  633
 Ground to excited state transition densities written to RWF  633

 ***********************************************************************
 Stability analysis using <AA,BB:AA,BB> singles matrix:
 ***********************************************************************

 Eigenvectors of the stability matrix:
 
 Eigenvector   1:      Triplet-B1   Eigenvalue= 0.2560351  <S**2>=2.000
       5 ->  6         0.69445
       5 -> 11        -0.11654
 The wavefunction is stable under the perturbations considered.
 Leave Link  914 at Sat Aug  2 15:32:33 2025, MaxMem= 12348030976 cpu:              17.4 elap:               0.4
 (Enter /home/hhratchian/gaussian/gdv-20250101-j30+/gdv/l508.exe)
 The wavefunction is already stable.
 Leave Link  508 at Sat Aug  2 15:32:33 2025, MaxMem= 12348030976 cpu:               0.1 elap:               0.0
 (Enter /home/hhratchian/gaussian/gdv-20250101-j30+/gdv/l601.exe)
 Copying SCF densities to generalized density rwf, IOpCl= 0 IROHF=0.
 
 **********************************************************************
 
               Population analysis using the SCF Density.
 
 **********************************************************************
 
 Orbital symmetries:
       Occupied  (A1) (A1) (B2) (A1) (B1)
       Virtual   (A1) (B2) (A1) (B1) (B2) (A1) (B2) (A1) (B2) (B1)
                 (A1) (A1) (A2) (A1) (B1) (A1) (B2) (B2) (A2) (B1)
                 (A1) (A1) (B2) (A1)
 The electronic state is 1-A1.
 Alpha  occ. eigenvalues --      -19.24105      -1.10090      -0.61152      -0.46131      -0.38968
 Alpha virt. eigenvalues --        0.06987       0.15598       0.19240       0.19383       0.25499
 Alpha virt. eigenvalues --        0.28934       0.96886       1.05504       1.15138       1.17903
 Alpha virt. eigenvalues --        1.19094       1.29359       1.57424       1.61148       1.70480
 Alpha virt. eigenvalues --        2.30808       2.31529       2.58190       2.71415       2.72046
 Alpha virt. eigenvalues --        3.10472       3.39660       3.58581       3.99603
          Condensed to atoms (all electrons):
               1          2          3
     1  O    8.149630   0.286075   0.286075
     2  H    0.286075   0.377546  -0.024512
     3  H    0.286075  -0.024512   0.377546
 Mulliken charges:
               1
     1  O   -0.721781
     2  H    0.360890
     3  H    0.360890
 Sum of Mulliken charges=   0.00000
 Mulliken charges with hydrogens summed into heavy atoms:
               1
     1  O    0.000000
 Electronic spatial extent (au):  <R**2>=             20.1370
 Charge=              0.0000 electrons
 Dipole moment (field-independent basis, Debye):
    X=             -0.0000    Y=             -0.0000    Z=             -2.2233  Tot=              2.2233
 Quadrupole moment (field-independent basis, Debye-Ang):
   XX=             -7.9003   YY=             -4.3502   ZZ=             -6.5624
   XY=              0.0000   XZ=              0.0000   YZ=              0.0000
 Traceless Quadrupole moment (field-independent basis, Debye-Ang):
   XX=             -1.6293   YY=              1.9208   ZZ=             -0.2915
   XY=              0.0000   XZ=              0.0000   YZ=              0.0000
 Octapole moment (field-independent basis, Debye-Ang**2):
  XXX=              0.0000  YYY=             -0.0000  ZZZ=             -1.6491  XYY=             -0.0000
  XXY=             -0.0000  XXZ=             -0.4885  XZZ=             -0.0000  YZZ=              0.0000
  YYZ=             -1.4381  XYZ=             -0.0000
 Hexadecapole moment (field-independent basis, Debye-Ang**3):
 XXXX=             -7.9856 YYYY=             -6.4700 ZZZZ=             -8.1765 XXXY=             -0.0000
 XXXZ=             -0.0000 YYYX=              0.0000 YYYZ=              0.0000 ZZZX=             -0.0000
 ZZZY=             -0.0000 XXYY=             -2.7043 XXZZ=             -2.7451 YYZZ=             -2.1273
 XXYZ=             -0.0000 YYXZ=              0.0000 ZZXY=              0.0000
 N-N=           9.132712 E-N=        -198.533219  KE=          75.716266
 Symmetry A1   KE=          67.636461
 Symmetry A2   KE=           0.000000
 Symmetry B1   KE=           4.461822
 Symmetry B2   KE=           3.617983
 No NMR shielding tensors so no spin-rotation constants.
 Leave Link  601 at Sat Aug  2 15:32:33 2025, MaxMem= 12348030976 cpu:               4.8 elap:               0.1
 (Enter /home/hhratchian/gaussian/gdv-20250101-j30+/gdv/local/l9999.exe)
 Unable to Open any file for archive entry.
 1\1\GINC-HMNODE006\Stability\RCAM-B3LYP\Gen\H2O1\AABOUTAKA\02-Aug-2025
 \0\\#P CAM-B3LYP chkbasis Geom=AllCheck Guess=Read Stable=Opt SCF=(fer
 mi,novaracc)\\Initial Stability Check for H2O\\0,1\O,0,0.,0.,-0.049295
 9455\H,0,0.770468667,0.,0.5289319728\H,0,-0.770468667,0.,0.5289319728\
 \Version=ES64L-GDVRevJ.30+\State=1-A1\HF=-76.4057187\RMSD=1.258e-09\Di
 pole=0.,0.,0.8746952\Quadrupole=1.4280645,-1.2113649,-0.2166997,0.,0.,
 0.\PG=C02V [C2(O1),SGV(H2)]\\@
 The archive entry for this job was punched.


 IT IS BY EATING THE LIGHT OF A STAR THAT WE EXIST, 
 IN THE FINAL ANALYSIS, 
 JUST AS IT IS BY PERCEIVING THE LIGHT OF STARS
 THAT WE DEFINE THE WORLD AROUND US.

                                    -- GILBERT GROSVENOR
 Job cpu time:       0 days  0 hours  0 minutes 47.4 seconds.
 Elapsed time:       0 days  0 hours  0 minutes  1.7 seconds.
 File lengths (MBytes):  RWF=     30 Int=      0 D2E=      0 Chk=     74 Scr=      2
 Normal termination of Gaussian DV at Sat Aug  2 15:32:33 2025.
