 Set GAUSS_MDEF to "92GB".
 Set GAUSS_PDEF to "56".
 Entering Gaussian System, Link 0=gdv
 Initial command:
 /home/hhratchian/gaussian/gdv-20250101-j30+/gdv/local/l1.exe "/scratch/aaboutaka/1562792/Gau-29295.inp" -scrdir="/scratch/aaboutaka/1562792/"
 Default is to use a total of  56 processors:
                               56 via shared-memory
                                1 via Linda
 Entering Link 1 = /home/hhratchian/gaussian/gdv-20250101-j30+/gdv/local/l1.exe PID=     29296.
  
 Copyright (c) 1988-2024, Gaussian, Inc.  All Rights Reserved.
  
 This is the private, development version of
 the Gaussian(R) DV system of programs. It is based on
 the Gaussian(R) 16 system (copyright 2016, Gaussian, Inc.),
 the Gaussian(R) 09 system (copyright 2009, Gaussian, Inc.),
 the Gaussian(R) 03 system (copyright 2003, Gaussian, Inc.),
 the Gaussian(R) 98 system (copyright 1998, Gaussian, Inc.),
 the Gaussian(R) 94 system (copyright 1995, Gaussian, Inc.),
 the Gaussian 92(TM) system (copyright 1992, Gaussian, Inc.),
 the Gaussian 90(TM) system (copyright 1990, Gaussian, Inc.),
 the Gaussian 88(TM) system (copyright 1988, Gaussian, Inc.),
 the Gaussian 86(TM) system (copyright 1986, Carnegie Mellon
 University), and the Gaussian 82(TM) system (copyright 1983,
 Carnegie Mellon University). Gaussian is a federally registered
 trademark of Gaussian, Inc.
  
 This software contains proprietary and confidential information,
 including trade secrets, belonging to Gaussian, Inc.
  
 This software is provided under written license and may be
 used, copied, transmitted, or stored only in accord with that
 written license.
  
 The following legend is applicable only to US Government
 contracts under FAR:
  
                    RESTRICTED RIGHTS LEGEND
  
 Use, reproduction and disclosure by the US Government is
 subject to restrictions as set forth in subparagraphs (a)
 and (c) of the Commercial Computer Software - Restricted
 Rights clause in FAR 52.227-19.
  
 Gaussian, Inc.
 340 Quinnipiac St., Bldg. 40, Wallingford CT 06492
  
  
 ---------------------------------------------------------------
 Warning -- This program may not be used in any manner that
 competes with the business of Gaussian, Inc. or will provide
 assistance to any competitor of Gaussian, Inc.  The licensee
 of this program is prohibited from giving any competitor of
 Gaussian, Inc. access to this program.  By using this program,
 the user acknowledges that Gaussian, Inc. is engaged in the
 business of creating and licensing software in the field of
 computational chemistry and represents and warrants to the
 licensee that it is not a competitor of Gaussian, Inc. and that
 it will not use this program in any manner prohibited above.
 ---------------------------------------------------------------
  

 Cite this work as:
 Gaussian Development Version, Revision J.30+,
 M. J. Frisch, G. W. Trucks, G. Scalmani, J. R. Cheeseman, X. Li, 
 J. Bloino, B. G. Janesko, A. V. Marenich, J. Zheng, F. Lipparini, 
 A. Jenkins, A. Liu, H. Liu, H. B. Schlegel, G. E. Scuseria, 
 M. A. Robb, V. Barone, G. A. Petersson, H. Nakatsuji, B. Mennucci, 
 C. Adamo, N. Rega, M. Caricato, H. P. Hratchian, J. V. Ortiz, 
 F. Pawlowski, A. F. Izmaylov, H. Hu, C. Liao, J. L. Sonnenberg, 
 D. Williams-Young, F. Ding, R. Gomperts, F. Egidi, J. Goings, 
 B. Peng, A. Petrone, T. Henderson, D. Ranasinghe, V. G. Zakrzewski, 
 J. Gao, G. Zheng, W. Liang, M. Hada, M. Ehara, K. Toyota, R. Fukuda, 
 J. Hasegawa, M. Ishida, T. Nakajima, Y. Honda, O. Kitao, H. Nakai, 
 T. Vreven, K. Throssell, J. A. Montgomery, Jr., J. E. Peralta, 
 F. Ogliaro, M. J. Bearpark, J. J. Heyd, E. N. Brothers, K. N. Kudin, 
 V. N. Staroverov, T. A. Keith, R. Kobayashi, J. Normand, 
 K. Raghavachari, A. P. Rendell, J. C. Burant, S. S. Iyengar, 
 M. Cossi, J. M. Millam, M. Klene, R. Cammi, R. L. Martin, O. Farkas, 
 J. B. Foresman, and D. J. Fox, Gaussian, Inc., Wallingford CT, 2024.
 
 *******************************************
 Gaussian DV:  ES64L-GDVRevJ.30+ 18-Dec-2024
                  2-Aug-2025 
 *******************************************
 %Chk=H2O_CAMB3LYP_STO3G.chk
 -------------------------------------------------------------
 #P CAM-B3LYP/STO-3G SCF=(fermi,novaracc) Guess=Mix Stable=Opt
 -------------------------------------------------------------
 1/37=210000000,38=1,172=1/1;
 2/12=2/2;
 3/6=3,11=2,25=1,30=1,74=-40/1,2,3;
 4/13=-1/1;
 5/5=2,22=13,38=1/2;
 6/7=2,8=2,9=2,10=2,28=1/1;
 8/6=1,10=90,11=11/1;
 9/8=-3,42=1,46=1/14;
 5/5=2,8=3,17=40,22=13,38=1/8(-2);
 6/7=2,8=2,9=2,10=2,28=1/1;
 99/5=1,9=1/99;
 Leave Link    1 at Sat Aug  2 15:31:24 2025, MaxMem=           0 cpu:               0.2 elap:               0.0
 (Enter /home/hhratchian/gaussian/gdv-20250101-j30+/gdv/local/l101.exe)
 
  Hrant - IAPOps =                         0
  Hrant - IAPOp1 =                         0
  Hrant - IAPOp2 =                         0
  Hrant - DoAP   =   F
 
 -------------------------------
 Initial Stability Check for H2O
 -------------------------------
 Symbolic Z-matrix:
 Charge =     0 Multiplicity =     1
 O                     0.        0.        0. 
 H                     0.7586    0.        0.50428 
 H                    -0.7586    0.        0.50428 
 
 ITRead=  0  0  0
 MicOpt= -1 -1 -1
 NAtoms=      3 NQM=        3 NQMF=       0 NMMI=      0 NMMIF=      0
                NMic=       0 NMicF=      0.
                    Isotopes and Nuclear Properties:
 (Nuclear quadrupole moments (NQMom) in fm**2, nuclear magnetic moments (NMagM)
  in nuclear magnetons)

  Atom         1           2           3
 IAtWgt=          16           1           1
 AtmWgt=  15.9949146   1.0078250   1.0078250
 NucSpn=           0           1           1
 AtZEff=   -0.000000   -0.000000   -0.000000
 NQMom=    0.0000000   0.0000000   0.0000000
 NMagM=    0.0000000   2.7928460   2.7928460
 AtZNuc=   8.0000000   1.0000000   1.0000000
 Leave Link  101 at Sat Aug  2 15:31:24 2025, MaxMem= 12348030976 cpu:               2.4 elap:               0.1
 (Enter /home/hhratchian/gaussian/gdv-20250101-j30+/gdv/l202.exe)
                          Input orientation:                          
 ---------------------------------------------------------------------
 Center     Atomic      Atomic             Coordinates (Angstroms)
 Number     Number       Type             X           Y           Z
 ---------------------------------------------------------------------
      1          8           0        0.000000    0.000000    0.000000
      2          1           0        0.758602    0.000000    0.504284
      3          1           0       -0.758602   -0.000000    0.504284
 ---------------------------------------------------------------------
                    Distance matrix (angstroms):
                    1          2          3
     1  O    0.000000
     2  H    0.910922   0.000000
     3  H    0.910922   1.517204   0.000000
 Stoichiometry    H2O
 Framework group  C2V[C2(O),SGV(H2)]
 Deg. of freedom     2
 Full point group                 C2V     NOp   4
 Largest Abelian subgroup         C2V     NOp   4
 Largest concise Abelian subgroup C2      NOp   2
                         Standard orientation:                         
 ---------------------------------------------------------------------
 Center     Atomic      Atomic             Coordinates (Angstroms)
 Number     Number       Type             X           Y           Z
 ---------------------------------------------------------------------
      1          8           0        0.000000    0.000000    0.100857
      2          1           0       -0.000000    0.758602   -0.403427
      3          1           0       -0.000000   -0.758602   -0.403427
 ---------------------------------------------------------------------
 Rotational constants (GHZ):        1110.1894251         435.6864908         312.8935057
 Leave Link  202 at Sat Aug  2 15:31:24 2025, MaxMem= 12348030976 cpu:               2.4 elap:               0.1
 (Enter /home/hhratchian/gaussian/gdv-20250101-j30+/gdv/local/l301.exe)
 Standard basis: STO-3G (5D, 7F)
 Ernie: Thresh=  0.10000D-02 Tol=  0.10000D-05 Strict=F.
 There are     4 symmetry adapted cartesian basis functions of A1  symmetry.
 There are     0 symmetry adapted cartesian basis functions of A2  symmetry.
 There are     1 symmetry adapted cartesian basis functions of B1  symmetry.
 There are     2 symmetry adapted cartesian basis functions of B2  symmetry.
 There are     4 symmetry adapted basis functions of A1  symmetry.
 There are     0 symmetry adapted basis functions of A2  symmetry.
 There are     1 symmetry adapted basis functions of B1  symmetry.
 There are     2 symmetry adapted basis functions of B2  symmetry.
     7 basis functions,    21 primitive gaussians,     7 cartesian basis functions
     5 alpha electrons        5 beta electrons
       nuclear repulsion energy         9.6435792538 Hartrees.
 IExCor=   2004019 DFT=T Ex+Corr=CAM-B3LYP ScaHFX=  1.000000
 ScaDFX=  1.000000  1.000000  1.000000  0.810000  1.000000  0.000000
 ScaDFX=  0.000000  0.000000  0.000000  0.000000  0.000000  0.000000
 Grid=UltraFine IRanWt=     -1 IRanGd=            0 ICorTp=0 IEDCtl=  2004
 HFx  wShort=  0.000000 wLong=  0.330000 cFull=  0.190000 cShort=  0.000000 cLong=  0.460000
 DFx  wShort=  0.330000 wLong=  0.000000 cFull=  0.350000 cShort=  0.460000 cLong=  0.000000
 NAtoms=    3 NActive=    3 NUniq=    2 SFac= 2.25D+00 NAtFMM=   60 NAOKFM=F Big=F
 Integral buffers will be    131072 words long.
 Raffenetti 2 integral format.
 Two-electron integral symmetry is turned on.
 Leave Link  301 at Sat Aug  2 15:31:24 2025, MaxMem= 12348030976 cpu:               1.3 elap:               0.1
 (Enter /home/hhratchian/gaussian/gdv-20250101-j30+/gdv/l302.exe)
 NPDir=0 NMtPBC=     1 NCelOv=     1 NCel=       1 NClECP=     1 NCelD=      1
         NCelK=      1 NCelE2=     1 NClLst=     1 CellRange=     0.0.
 One-electron integrals computed using PRISM.
 One-electron integral symmetry used in STVInt
 NBasis=     7 RedAO= T EigKep=  3.13D-01  NBF=     4     0     1     2
 NBsUse=     7 1.00D-06 EigRej= -1.00D+00 NBFU=     4     0     1     2
 Precomputing XC quadrature grid using
 IXCGrd=   9 Grid=UltraFine IRanWt=          -1 IRanGd=           0 AccXCQ= 0.00D+00.
 Generated NRdTot=       0 NPtTot=       67885 NUsed=           0 NTot=          64
 NSgBfM=     7     7     7     7     7 MxSgAt=     3 MxSgA2=     3 SizInc=   0.000
 NMBTot=      603 MaxBatPerAtom=       81 MaxMicBPerAtom=      207 NBfPt=              412568.
 Leave Link  302 at Sat Aug  2 15:31:24 2025, MaxMem= 12348030976 cpu:               4.3 elap:               0.1
 (Enter /home/hhratchian/gaussian/gdv-20250101-j30+/gdv/l303.exe)
 DipDrv:  MaxL=1.
 Leave Link  303 at Sat Aug  2 15:31:24 2025, MaxMem= 12348030976 cpu:               1.3 elap:               0.0
 (Enter /home/hhratchian/gaussian/gdv-20250101-j30+/gdv/l401.exe)
 ExpMin= 1.69D-01 ExpMax= 1.31D+02 ExpMxC= 1.31D+02 IAcc=3 Grid=UltraFine AccDes= 0.00D+00
 Harris functional with IExCor=10009 and Grid=UltraFine diagonalized for initial guess.
 HarFok:  IExCor=   10009 AccDes= 0.00D+00 Grid=UltraFine IDoV= 1 UseB2=F ITyADJ=14 ICtDFT=  3500011
 FoFCou: FMM=F IPFlag=           0 FMFlag=      100000 FMFlg1=           0
         NFxFlg=           0 DoJE=T BraDBF=F KetDBF=T FulRan=T
         wScrn=  0.000000 ICntrl=       500 IOpCl=  0 I1Cent=   200000004 NGrid=           0
         NMat0=    1 NMatS0=      1 NMatT0=    0 NMatD0=    1 NMtDS0=    0 NMtDT0=    0
 Petite list used in FoFCou.
 Harris En= -75.2957649030435    
 JPrj=0 DoOrth=F DoCkMO=T.
 Mixing orbitals, IMix= 1 IMixAn=  0 NRI=1 NE=    5 Coef=  7.07106781D-01  7.07106781D-01
 Initial guess orbital symmetries:
       Occupied  (A1) (A1) (B2) (A1) (?A)
       Virtual   (?A) (B2)
 Leave Link  401 at Sat Aug  2 15:31:24 2025, MaxMem= 12348030976 cpu:               5.1 elap:               0.1
 (Enter /home/hhratchian/gaussian/gdv-20250101-j30+/gdv/local/l502.exe)
 Keep R1 ints in memory in symmetry-blocked form, NReq=47702778.
 FoFCou: FMM=F IPFlag=           0 FMFlag=           0 FMFlg1=           0
         NFxFlg=           0 DoJE=F BraDBF=F KetDBF=F FulRan=T
         wScrn=  0.000000 ICntrl=       600 IOpCl=  0 I1Cent=           0 NGrid=           0
         NMat0=    1 NMatS0=     28 NMatT0=    0 NMatD0=    1 NMtDS0=    0 NMtDT0=    0
 Petite list used in FoFCou.
 Closed shell SCF:
 Using DIIS extrapolation, IDIIS=    10.
 NGot= 12348030976 LenX= 12348027978 LenY= 12348027096
 Requested convergence on RMS density matrix=1.00D-08 within 128 cycles.
 Requested convergence on MAX density matrix=1.00D-06.
 Requested convergence on             energy=1.00D-06.
 Level shift goal  0.100 maximum shift  0.100.
 No special actions if energy rises.
 Dynamic level shift is on during FON iterations.
 An orbital has undefined symmetry, so N**3 symmetry is turned off.
 
  Hrant - CycOpn.
 

 Cycle   1  Pass 1  IDiag  1:
 Density matrix breaks symmetry, PCut= 1.00D-04
 Density matrix has no symmetry -- integrals replicated.
 E= -74.7194544139153    
 DIIS: error= 1.23D-01 at cycle   1 NSaved=   1.
 NSaved= 1 IEnMin= 1 EnMin= -74.7194544139153     IErMin= 1 ErrMin= 1.23D-01
 ErrMax= 1.23D-01  0.00D+00 EMaxC= 1.00D+00 BMatC= 3.99D-02 BMatP= 3.99D-02
 Rises=F IDIUse=1 WtCom= 1.00D+00 WtEn= 0.00D+00
 Coeff-Com:  0.100D+01
 Coeff:      0.100D+01
 Gap=     0.158 Goal=     0.100 Shift=    0.000
 T= 2345. Gap= 0.568 NK=0 IS=    6 IE=    7 IFin=    5
          NO(<0.9)=   0  NV(>0.1)=   0      5.00e < EF      0.00e >EF  Err=0.0D+00
 GapD=    0.158 DampG=1.000 DampE=0.250 DampFc=0.2500 IDamp=-1.
 Damping current iteration by 2.50D-01
 RMSDP=2.43D-01 MaxDP=4.81D-01              OVMax= 0.00D+00

 Cycle   2  Pass 1  IDiag  1:
 Density matrix breaks symmetry, PCut= 1.00D-04
 Density matrix has no symmetry -- integrals replicated.
 E= -74.8289410961539     Delta-E=       -0.109486682239 Rises=F Damp=T AM=F Ri=F Fa=F
 DIIS: error= 9.81D-02 at cycle   2 NSaved=   2.
 NSaved= 2 IEnMin= 2 EnMin= -74.8289410961539     IErMin= 2 ErrMin= 9.81D-02
 ErrMax= 9.81D-02  0.00D+00 EMaxC= 1.00D+00 BMatC= 2.49D-02 BMatP= 3.99D-02
 Rises=F IDIUse=1 WtCom= 1.00D+00 WtEn= 0.00D+00
 Coeff-Com: -0.246D+01 0.346D+01
 Coeff:     -0.246D+01 0.346D+01
 Gap=     0.588 Goal=     0.100 Shift=    0.000
 T= 2302. Gap= 0.603 NK=0 IS=    6 IE=    7 IFin=    5
          NO(<0.9)=   0  NV(>0.1)=   0      5.00e < EF      0.00e >EF  Err=0.0D+00
 GapD=    0.588 DampG=2.000 DampE=0.500 DampFc=1.0000 IDamp=-1.
 RMSDP=2.11D-01 MaxDP=3.78D-01 DE=-1.09D-01 OVMax= 0.00D+00

 Cycle   3  Pass 1  IDiag  1:
 Density matrix breaks symmetry, PCut= 1.00D-04
 Density matrix has no symmetry -- integrals replicated.
 E= -75.2546211609878     Delta-E=       -0.425680064834 Rises=F Damp=F AM=F Ri=F Fa=F
 DIIS: error= 1.06D-02 at cycle   3 NSaved=   3.
 NSaved= 3 IEnMin= 3 EnMin= -75.2546211609878     IErMin= 3 ErrMin= 1.06D-02
 ErrMax= 1.06D-02  0.00D+00 EMaxC= 1.00D+00 BMatC= 6.32D-04 BMatP= 2.49D-02
 Rises=F IDIUse=1 WtCom= 1.00D+00 WtEn= 0.00D+00
 Coeff-Com: -0.583D+00 0.655D+00 0.928D+00
 Coeff:     -0.583D+00 0.655D+00 0.928D+00
 Gap=     0.676 Goal=     0.100 Shift=    0.000
 T= 2065. Gap= 0.678 NK=0 IS=    6 IE=    7 IFin=    5
          NO(<0.9)=   0  NV(>0.1)=   0      5.00e < EF      0.00e >EF  Err=0.0D+00
 GapD=    0.676 DampG=2.000 DampE=0.500 DampFc=1.0000 IDamp=-1.
 RMSDP=1.42D-02 MaxDP=4.03D-02 DE=-4.26D-01 OVMax= 0.00D+00

 Cycle   4  Pass 1  IDiag  1:
 Density matrix breaks symmetry, PCut= 1.00D-04
 Density matrix has no symmetry -- integrals replicated.
 E= -75.2572731283638     Delta-E=       -0.002651967376 Rises=F Damp=F AM=F Ri=F Fa=F
 DIIS: error= 4.66D-03 at cycle   4 NSaved=   4.
 NSaved= 4 IEnMin= 4 EnMin= -75.2572731283638     IErMin= 4 ErrMin= 4.66D-03
 ErrMax= 4.66D-03  0.00D+00 EMaxC= 1.00D+00 BMatC= 6.95D-05 BMatP= 6.32D-04
 Rises=F IDIUse=1 WtCom= 1.00D+00 WtEn= 0.00D+00
 Coeff-Com: -0.789D-01 0.137D+00-0.404D+00 0.135D+01
 Coeff:     -0.789D-01 0.137D+00-0.404D+00 0.135D+01
 Gap=     0.666 Goal=     0.100 Shift=    0.000
 T= 1635. Gap= 0.666 NK=0 IS=    6 IE=    7 IFin=    5
          NO(<0.9)=   0  NV(>0.1)=   0      5.00e < EF      0.00e >EF  Err=0.0D+00
 GapD=    0.666 DampG=2.000 DampE=1.000 DampFc=2.0000 IDamp=-1.
 RMSDP=3.05D-03 MaxDP=9.62D-03 DE=-2.65D-03 OVMax= 0.00D+00

 Cycle   5  Pass 1  IDiag  1:
 Density matrix breaks symmetry, PCut= 1.00D-04
 Density matrix has no symmetry -- integrals replicated.
 E= -75.2574413602184     Delta-E=       -0.000168231855 Rises=F Damp=F AM=F Ri=F Fa=F
 DIIS: error= 1.31D-03 at cycle   5 NSaved=   5.
 NSaved= 5 IEnMin= 5 EnMin= -75.2574413602184     IErMin= 5 ErrMin= 1.31D-03
 ErrMax= 1.31D-03  0.00D+00 EMaxC= 1.00D+00 BMatC= 6.02D-06 BMatP= 6.95D-05
 Rises=F IDIUse=1 WtCom= 1.00D+00 WtEn= 0.00D+00
 Coeff-Com:  0.786D-02-0.188D-01 0.668D-01 0.546D-01 0.889D+00
 Coeff:      0.786D-02-0.188D-01 0.668D-01 0.546D-01 0.889D+00
 Gap=     0.669 Goal=     0.100 Shift=    0.000
 T=  482. Gap= 0.669 NK=0 IS=    6 IE=    7 IFin=    5
          NO(<0.9)=   0  NV(>0.1)=   0      5.00e < EF      0.00e >EF  Err=0.0D+00
 GapD=    0.669 DampG=2.000 DampE=1.000 DampFc=2.0000 IDamp=-1.
 RMSDP=8.20D-04 MaxDP=2.65D-03 DE=-1.68D-04 OVMax= 0.00D+00

 Cycle   6  Pass 1  IDiag  1:
 E= -75.2574552484060     Delta-E=       -0.000013888188 Rises=F Damp=F AM=F Ri=F Fa=F
 DIIS: error= 3.40D-04 at cycle   6 NSaved=   6.
 NSaved= 6 IEnMin= 6 EnMin= -75.2574552484060     IErMin= 6 ErrMin= 3.40D-04
 ErrMax= 3.40D-04  0.00D+00 EMaxC= 1.00D+00 BMatC= 3.74D-07 BMatP= 6.02D-06
 Rises=F IDIUse=1 WtCom= 1.00D+00 WtEn= 0.00D+00
 Coeff-Com: -0.867D-03 0.262D-02-0.925D-02-0.678D-01-0.470D-01 0.112D+01
 Coeff:     -0.867D-03 0.262D-02-0.925D-02-0.678D-01-0.470D-01 0.112D+01
 Gap=     0.668 Goal=     0.100 Shift=    0.000
 RMSDP=2.06D-04 MaxDP=6.47D-04 DE=-1.39D-05 OVMax= 0.00D+00

 Cycle   7  Pass 1  IDiag  1:
 E= -75.2574561795722     Delta-E=       -0.000000931166 Rises=F Damp=F AM=F Ri=F Fa=F
 DIIS: error= 6.37D-05 at cycle   7 NSaved=   7.
 NSaved= 7 IEnMin= 7 EnMin= -75.2574561795722     IErMin= 7 ErrMin= 6.37D-05
 ErrMax= 6.37D-05  0.00D+00 EMaxC= 1.00D+00 BMatC= 1.27D-08 BMatP= 3.74D-07
 Rises=F IDIUse=1 WtCom= 1.00D+00 WtEn= 0.00D+00
 Coeff-Com:  0.240D-03-0.480D-03 0.802D-03 0.157D-01-0.142D-01-0.109D+00
 Coeff-Com:  0.111D+01
 Coeff:      0.240D-03-0.480D-03 0.802D-03 0.157D-01-0.142D-01-0.109D+00
 Coeff:      0.111D+01
 Gap=     0.668 Goal=     0.100 Shift=    0.000
 RMSDP=3.34D-05 MaxDP=1.15D-04 DE=-9.31D-07 OVMax= 0.00D+00

 Cycle   8  Pass 1  IDiag  1:
 E= -75.2574562109392     Delta-E=       -0.000000031367 Rises=F Damp=F AM=F Ri=F Fa=F
 DIIS: error= 6.63D-06 at cycle   8 NSaved=   8.
 NSaved= 8 IEnMin= 8 EnMin= -75.2574562109392     IErMin= 8 ErrMin= 6.63D-06
 ErrMax= 6.63D-06  0.00D+00 EMaxC= 1.00D+00 BMatC= 1.45D-10 BMatP= 1.27D-08
 Rises=F IDIUse=1 WtCom= 1.00D+00 WtEn= 0.00D+00
 Coeff-Com:  0.457D-06-0.853D-06 0.151D-05-0.211D-03 0.109D-02-0.207D-01
 Coeff-Com: -0.378D-01 0.106D+01
 Coeff:      0.457D-06-0.853D-06 0.151D-05-0.211D-03 0.109D-02-0.207D-01
 Coeff:     -0.378D-01 0.106D+01
 Gap=     0.668 Goal=     0.100 Shift=    0.000
 RMSDP=3.49D-06 MaxDP=1.05D-05 DE=-3.14D-08 OVMax= 0.00D+00

 Cycle   9  Pass 1  IDiag  1:
 E= -75.2574562113136     Delta-E=       -0.000000000374 Rises=F Damp=F AM=F Ri=F Fa=F
 DIIS: error= 1.05D-08 at cycle   9 NSaved=   9.
 NSaved= 9 IEnMin= 9 EnMin= -75.2574562113136     IErMin= 9 ErrMin= 1.05D-08
 ErrMax= 1.05D-08  0.00D+00 EMaxC= 1.00D+00 BMatC= 3.70D-16 BMatP= 1.45D-10
 Rises=F IDIUse=1 WtCom= 1.00D+00 WtEn= 0.00D+00
 Coeff-Com:  0.695D-10-0.348D-10-0.973D-08 0.266D-06-0.600D-06-0.280D-04
 Coeff-Com: -0.507D-04-0.938D-03 0.100D+01
 Coeff:      0.695D-10-0.348D-10-0.973D-08 0.266D-06-0.600D-06-0.280D-04
 Coeff:     -0.507D-04-0.938D-03 0.100D+01
 Gap=     0.668 Goal=     0.100 Shift=    0.000
 RMSDP=5.76D-09 MaxDP=1.67D-08 DE=-3.74D-10 OVMax= 0.00D+00

 SCF Done:  E(RCAM-B3LYP) =  -75.2574562113     A.U. after    9 cycles
            NFock=  9  Conv=0.58D-08     -V/T= 2.0076
 KE=          74.689700 PE=        -197.890061 EE=          38.299326
 Leave Link  502 at Sat Aug  2 15:31:25 2025, MaxMem= 12348030976 cpu:               5.9 elap:               0.2
 (Enter /home/hhratchian/gaussian/gdv-20250101-j30+/gdv/l601.exe)
 Copying SCF densities to generalized density rwf, IOpCl= 0 IROHF=0.
 
 **********************************************************************
 
               Population analysis using the SCF Density.
 
 **********************************************************************
 
 Orbital symmetries:
       Occupied  (A1) (A1) (B2) (A1) (B1)
       Virtual   (A1) (B2)
 The electronic state is 1-A1.
 Alpha  occ. eigenvalues --      -18.88766      -1.02457      -0.54257      -0.27312      -0.21155
 Alpha virt. eigenvalues --        0.45635       0.61787
          Condensed to atoms (all electrons):
               1          2          3
     1  O    7.871803   0.278750   0.278750
     2  H    0.278750   0.555916  -0.049317
     3  H    0.278750  -0.049317   0.555916
 Mulliken charges:
               1
     1  O   -0.429303
     2  H    0.214651
     3  H    0.214651
 Sum of Mulliken charges=   0.00000
 Mulliken charges with hydrogens summed into heavy atoms:
               1
     1  O    0.000000
 Electronic spatial extent (au):  <R**2>=             17.2029
 Charge=             -0.0000 electrons
 Dipole moment (field-independent basis, Debye):
    X=             -0.0000    Y=             -0.0000    Z=             -1.7151  Tot=              1.7151
 Quadrupole moment (field-independent basis, Debye-Ang):
   XX=             -6.0447   YY=             -4.1202   ZZ=             -5.4909
   XY=              0.0000   XZ=              0.0000   YZ=              0.0000
 Traceless Quadrupole moment (field-independent basis, Debye-Ang):
   XX=             -0.8261   YY=              1.0984   ZZ=             -0.2723
   XY=              0.0000   XZ=              0.0000   YZ=              0.0000
 Octapole moment (field-independent basis, Debye-Ang**2):
  XXX=              0.0000  YYY=              0.0000  ZZZ=             -0.2249  XYY=             -0.0000
  XXY=              0.0000  XXZ=             -0.0320  XZZ=              0.0000  YZZ=             -0.0000
  YYZ=             -0.5716  XYZ=             -0.0000
 Hexadecapole moment (field-independent basis, Debye-Ang**3):
 XXXX=             -3.1776 YYYY=             -6.0982 ZZZZ=             -4.3743 XXXY=             -0.0000
 XXXZ=             -0.0000 YYYX=             -0.0000 YYYZ=              0.0000 ZZZX=             -0.0000
 ZZZY=             -0.0000 XXYY=             -1.7200 XXZZ=             -1.2798 YYZZ=             -1.6139
 XXYZ=              0.0000 YYXZ=              0.0000 ZZXY=             -0.0000
 N-N=           9.643579 E-N=        -197.890061  KE=          74.689700
 Symmetry A1   KE=          66.675980
 Symmetry A2   KE=           0.000000
 Symmetry B1   KE=           5.057462
 Symmetry B2   KE=           2.956257
 No NMR shielding tensors so no spin-rotation constants.
 Leave Link  601 at Sat Aug  2 15:31:25 2025, MaxMem= 12348030976 cpu:               3.1 elap:               0.1
 (Enter /home/hhratchian/gaussian/gdv-20250101-j30+/gdv/l801.exe)
 DoSCS=F DFT=T ScalE2(SS,OS)=  1.000000  1.000000
 Range of M.O.s used for correlation:     1     7
 NBasis=     7 NAE=     5 NBE=     5 NFC=     0 NFV=     0
 NROrb=      7 NOA=     5 NOB=     5 NVA=     2 NVB=     2
 Leave Link  801 at Sat Aug  2 15:31:25 2025, MaxMem= 12348030976 cpu:               0.1 elap:               0.0
 (Enter /home/hhratchian/gaussian/gdv-20250101-j30+/gdv/l914.exe)
 RHF ground state
 Doing stability rather than CIS.
 DoSCS=F DFT=T ScalE2(SS,OS)=  1.000000  1.000000
   ScalD2(USS,UOS,TSS,TOS,w)=  1.000000  1.000000  1.000000  1.000000  1.000000
 Keep R1 and R2 ints in memory in symmetry-blocked form, NReq=53509821.
 FoFCou: FMM=F IPFlag=           0 FMFlag=           0 FMFlg1=           0
         NFxFlg=           0 DoJE=F BraDBF=F KetDBF=F FulRan=T
         wScrn=  0.000000 ICntrl=       600 IOpCl=  0 I1Cent=           0 NGrid=           0
         NMat0=    1 NMatS0=     28 NMatT0=    0 NMatD0=    1 NMtDS0=    0 NMtDT0=    0
 Petite list used in FoFCou.
 MDV= 12348030976 DFT=T IDoStb=1 Mixed=T DoRPA=F DoScal=F NonHer=F
 Making orbital integer symmetry assigments:
 Orbital symmetries:
       Occupied  (A1) (A1) (B2) (A1) (B1)
       Virtual   (A1) (B2)
    20 initial guesses have been made.
 Convergence on wavefunction:    0.001000000000000
 Davidson Disk Diagonalization:  ConvIn= 1.00D-03 SkipCon=T Conv= 1.00D-03.
 Max sub-space:    48 initial roots:    24 roots to seek:     1 dimension of matrix:           20
 *** WARNING: Number of orthogonal guesses is           20
 Iteration     1 Dimension    20 NMult     0 NNew     20
 CISAX will form    20 AO SS matrices at one time.
 NMat=    20 NSing=    10 JSym2X= 2.
 New state      1 was old state      2
 Excitation Energies [eV] at current iteration:
 Root      1 :     9.856104827290364
 Root      2 :    11.310327822355733
 Root      3 :    13.980724063254518
 Root      4 :    14.050189762675311
 Root      5 :    14.201275290166656
 Root      6 :    15.261452125438110
 Root      7 :    16.466108873973461
 Root      8 :    18.064715633684113
 Root      9 :    20.338668850679404
 Root     10 :    20.455291009039559
 Root     11 :    26.610025896192447
 Root     12 :    31.144081296001165
 Root     13 :    32.139327542801354
 Root     14 :    35.845714492728256
 Root     15 :    41.570420751052730
 Root     16 :    47.467552758563215
 Root     17 :   517.264878083457006
 Root     18 :   520.856531624818558
 Root     19 :   521.075428427805605
 Root     20 :   523.482590796957197
 Convergence achieved for final wavefunctions.
 1PDM for each excited state written to RWF  633
 Ground to excited state transition densities written to RWF  633

 ***********************************************************************
 Stability analysis using <AA,BB:AA,BB> singles matrix:
 ***********************************************************************

 Eigenvectors of the stability matrix:
 
 Eigenvector   1:      Triplet-B1   Eigenvalue= 0.3622052  <S**2>=2.000
       5 ->  6         0.70711
 
 Eigenvector   2:      Triplet-A1   Eigenvalue= 0.4156469  <S**2>=2.000
       3 ->  7        -0.12260
       4 ->  6         0.69161
 
 Eigenvector   3:      Triplet-A2   Eigenvalue= 0.5137822  <S**2>=2.000
       5 ->  7         0.70711
 
 Eigenvector   4:      Singlet-B1   Eigenvalue= 0.5163350  <S**2>=0.000
       5 ->  6         0.70711
 
 Eigenvector   5:      Triplet-B2   Eigenvalue= 0.5218873  <S**2>=2.000
       3 ->  6        -0.31169
       4 ->  7         0.63373
 
 Eigenvector   6:      Singlet-A1   Eigenvalue= 0.5608480  <S**2>=0.000
       3 ->  7         0.14517
       4 ->  6         0.68832
 The wavefunction is stable under the perturbations considered.
 Leave Link  914 at Sat Aug  2 15:31:25 2025, MaxMem= 12348030976 cpu:               5.8 elap:               0.2
 (Enter /home/hhratchian/gaussian/gdv-20250101-j30+/gdv/l508.exe)
 The wavefunction is already stable.
 Leave Link  508 at Sat Aug  2 15:31:25 2025, MaxMem= 12348030976 cpu:               1.3 elap:               0.0
 (Enter /home/hhratchian/gaussian/gdv-20250101-j30+/gdv/l601.exe)
 Copying SCF densities to generalized density rwf, IOpCl= 0 IROHF=0.
 
 **********************************************************************
 
               Population analysis using the SCF Density.
 
 **********************************************************************
 
 Orbital symmetries:
       Occupied  (A1) (A1) (B2) (A1) (B1)
       Virtual   (A1) (B2)
 The electronic state is 1-A1.
 Alpha  occ. eigenvalues --      -18.88766      -1.02457      -0.54257      -0.27312      -0.21155
 Alpha virt. eigenvalues --        0.45635       0.61787
          Condensed to atoms (all electrons):
               1          2          3
     1  O    7.871803   0.278750   0.278750
     2  H    0.278750   0.555916  -0.049317
     3  H    0.278750  -0.049317   0.555916
 Mulliken charges:
               1
     1  O   -0.429303
     2  H    0.214651
     3  H    0.214651
 Sum of Mulliken charges=   0.00000
 Mulliken charges with hydrogens summed into heavy atoms:
               1
     1  O    0.000000
 Electronic spatial extent (au):  <R**2>=             17.2029
 Charge=             -0.0000 electrons
 Dipole moment (field-independent basis, Debye):
    X=             -0.0000    Y=             -0.0000    Z=             -1.7151  Tot=              1.7151
 Quadrupole moment (field-independent basis, Debye-Ang):
   XX=             -6.0447   YY=             -4.1202   ZZ=             -5.4909
   XY=              0.0000   XZ=              0.0000   YZ=              0.0000
 Traceless Quadrupole moment (field-independent basis, Debye-Ang):
   XX=             -0.8261   YY=              1.0984   ZZ=             -0.2723
   XY=              0.0000   XZ=              0.0000   YZ=              0.0000
 Octapole moment (field-independent basis, Debye-Ang**2):
  XXX=              0.0000  YYY=              0.0000  ZZZ=             -0.2249  XYY=             -0.0000
  XXY=              0.0000  XXZ=             -0.0320  XZZ=              0.0000  YZZ=             -0.0000
  YYZ=             -0.5716  XYZ=             -0.0000
 Hexadecapole moment (field-independent basis, Debye-Ang**3):
 XXXX=             -3.1776 YYYY=             -6.0982 ZZZZ=             -4.3743 XXXY=             -0.0000
 XXXZ=             -0.0000 YYYX=             -0.0000 YYYZ=              0.0000 ZZZX=             -0.0000
 ZZZY=             -0.0000 XXYY=             -1.7200 XXZZ=             -1.2798 YYZZ=             -1.6139
 XXYZ=              0.0000 YYXZ=              0.0000 ZZXY=             -0.0000
 N-N=           9.643579 E-N=        -197.890061  KE=          74.689700
 Symmetry A1   KE=          66.675980
 Symmetry A2   KE=           0.000000
 Symmetry B1   KE=           5.057462
 Symmetry B2   KE=           2.956257
 No NMR shielding tensors so no spin-rotation constants.
 Leave Link  601 at Sat Aug  2 15:31:25 2025, MaxMem= 12348030976 cpu:               3.9 elap:               0.1
 (Enter /home/hhratchian/gaussian/gdv-20250101-j30+/gdv/local/l9999.exe)
 Unable to Open any file for archive entry.
 1\1\GINC-HMNODE006\Stability\RCAM-B3LYP\STO-3G\H2O1\AABOUTAKA\02-Aug-2
 025\0\\#P CAM-B3LYP/STO-3G SCF=(fermi,novaracc) Guess=Mix Stable=Opt\\
 Initial Stability Check for H2O\\0,1\O,0,0.,0.,0.\H,0,0.758602,0.,0.50
 4284\H,0,-0.758602,0.,0.504284\\Version=ES64L-GDVRevJ.30+\State=1-A1\H
 F=-75.2574562\RMSD=5.763e-09\Dipole=0.,0.,0.6747668\Quadrupole=0.81661
 73,-0.6141922,-0.2024251,0.,0.,0.\PG=C02V [C2(O1),SGV(H2)]\\@
 The archive entry for this job was punched.


 LORD, MAN... WERE YE BUT WHYLES WHERE I AM, 
 THE GENTILES YE WAD NE'ER ENVY 'EM.        
 IT'S TRUE, THEY NEEDNA STARVE OR SWEAT,     
 THRO' WINTER'S CAULD OR SIMMER'S HEAT...  
 THEY'VE NAE SAIR WARK TO CRAZE THEIR BANES, 
 AND FILL AULD AGE WITH GRIPS AN' GRANES...  
                                             
 BUT HUMAN BODIES ARE SIC FOOLS              
 FOR A' THEIR COLLEGES AND SCHOOLS,           
 THAT WHEN NAE REAL ILLS PERPLEX THEM,       
 THEY MAK ENOW THEMSELVES TO VEX THEM,       
 AN' AYE THE LESS THEY HAE TO STURT THEM,    
 IN LIKE PROPORTION LESS WILL HURT THEM....  
                                             
                (ROBERT BURNS 'THE TWA DOGS')
 Job cpu time:       0 days  0 hours  0 minutes 39.2 seconds.
 Elapsed time:       0 days  0 hours  0 minutes  1.3 seconds.
 File lengths (MBytes):  RWF=     22 Int=      0 D2E=      0 Chk=      2 Scr=      2
 Normal termination of Gaussian DV at Sat Aug  2 15:31:25 2025.
 Initial command:
 /home/hhratchian/gaussian/gdv-20250101-j30+/gdv/local/l1.exe "/scratch/aaboutaka/1562792/Gau-29295.inp" -scrdir="/scratch/aaboutaka/1562792/"
 Default is to use a total of  56 processors:
                               56 via shared-memory
                                1 via Linda
 Entering Link 1 = /home/hhratchian/gaussian/gdv-20250101-j30+/gdv/local/l1.exe PID=     30069.
  
 Copyright (c) 1988-2024, Gaussian, Inc.  All Rights Reserved.
  
 This is the private, development version of
 the Gaussian(R) DV system of programs. It is based on
 the Gaussian(R) 16 system (copyright 2016, Gaussian, Inc.),
 the Gaussian(R) 09 system (copyright 2009, Gaussian, Inc.),
 the Gaussian(R) 03 system (copyright 2003, Gaussian, Inc.),
 the Gaussian(R) 98 system (copyright 1998, Gaussian, Inc.),
 the Gaussian(R) 94 system (copyright 1995, Gaussian, Inc.),
 the Gaussian 92(TM) system (copyright 1992, Gaussian, Inc.),
 the Gaussian 90(TM) system (copyright 1990, Gaussian, Inc.),
 the Gaussian 88(TM) system (copyright 1988, Gaussian, Inc.),
 the Gaussian 86(TM) system (copyright 1986, Carnegie Mellon
 University), and the Gaussian 82(TM) system (copyright 1983,
 Carnegie Mellon University). Gaussian is a federally registered
 trademark of Gaussian, Inc.
  
 This software contains proprietary and confidential information,
 including trade secrets, belonging to Gaussian, Inc.
  
 This software is provided under written license and may be
 used, copied, transmitted, or stored only in accord with that
 written license.
  
 The following legend is applicable only to US Government
 contracts under FAR:
  
                    RESTRICTED RIGHTS LEGEND
  
 Use, reproduction and disclosure by the US Government is
 subject to restrictions as set forth in subparagraphs (a)
 and (c) of the Commercial Computer Software - Restricted
 Rights clause in FAR 52.227-19.
  
 Gaussian, Inc.
 340 Quinnipiac St., Bldg. 40, Wallingford CT 06492
  
  
 ---------------------------------------------------------------
 Warning -- This program may not be used in any manner that
 competes with the business of Gaussian, Inc. or will provide
 assistance to any competitor of Gaussian, Inc.  The licensee
 of this program is prohibited from giving any competitor of
 Gaussian, Inc. access to this program.  By using this program,
 the user acknowledges that Gaussian, Inc. is engaged in the
 business of creating and licensing software in the field of
 computational chemistry and represents and warrants to the
 licensee that it is not a competitor of Gaussian, Inc. and that
 it will not use this program in any manner prohibited above.
 ---------------------------------------------------------------
  

 Cite this work as:
 Gaussian Development Version, Revision J.30+,
 M. J. Frisch, G. W. Trucks, G. Scalmani, J. R. Cheeseman, X. Li, 
 J. Bloino, B. G. Janesko, A. V. Marenich, J. Zheng, F. Lipparini, 
 A. Jenkins, A. Liu, H. Liu, H. B. Schlegel, G. E. Scuseria, 
 M. A. Robb, V. Barone, G. A. Petersson, H. Nakatsuji, B. Mennucci, 
 C. Adamo, N. Rega, M. Caricato, H. P. Hratchian, J. V. Ortiz, 
 F. Pawlowski, A. F. Izmaylov, H. Hu, C. Liao, J. L. Sonnenberg, 
 D. Williams-Young, F. Ding, R. Gomperts, F. Egidi, J. Goings, 
 B. Peng, A. Petrone, T. Henderson, D. Ranasinghe, V. G. Zakrzewski, 
 J. Gao, G. Zheng, W. Liang, M. Hada, M. Ehara, K. Toyota, R. Fukuda, 
 J. Hasegawa, M. Ishida, T. Nakajima, Y. Honda, O. Kitao, H. Nakai, 
 T. Vreven, K. Throssell, J. A. Montgomery, Jr., J. E. Peralta, 
 F. Ogliaro, M. J. Bearpark, J. J. Heyd, E. N. Brothers, K. N. Kudin, 
 V. N. Staroverov, T. A. Keith, R. Kobayashi, J. Normand, 
 K. Raghavachari, A. P. Rendell, J. C. Burant, S. S. Iyengar, 
 M. Cossi, J. M. Millam, M. Klene, R. Cammi, R. L. Martin, O. Farkas, 
 J. B. Foresman, and D. J. Fox, Gaussian, Inc., Wallingford CT, 2024.
 
 *******************************************
 Gaussian DV:  ES64L-GDVRevJ.30+ 18-Dec-2024
                  2-Aug-2025 
 *******************************************
 %Chk=H2O_CAMB3LYP_STO3G.chk
 ----------------------------------------------------------------------
 #P CAM-B3LYP chkbasis Geom=AllCheck Guess=Read Opt Freq SCF=(fermi, no
 varacc) int=superfinegrid
 ----------------------------------------------------------------------
 1/18=20,19=15,26=5,29=7,38=1/1,3;
 2/9=110,12=2/2;
 3/5=7,6=2,11=2,14=-4,25=1,30=1,67=1,71=1,74=-40,75=-7,116=-2/1,2,3;
 4/5=1/1;
 5/5=2,22=13,38=6/2;
 6/7=2,8=2,9=2,10=2,28=1/1;
 7//1,2,3,16;
 1/18=20,19=15,26=5/3(2);
 2/9=110/2;
 99//99;
 2/9=110/2;
 3/5=7,6=1,11=2,14=-2,25=1,30=1,71=1,74=-40,75=-7,82=7,187=7/1,2,3;
 4/5=5,16=3,69=1/1;
 5/5=2,22=13,38=1/2;
 7//1,2,3,16;
 1/18=20,19=15,26=5/3(-5);
 2/9=110/2;
 6/7=2,8=2,9=2,10=2,19=2,28=1/1;
 99/9=1/99;
 Leave Link    1 at Sat Aug  2 15:31:25 2025, MaxMem=           0 cpu:               2.5 elap:               0.1
 (Enter /home/hhratchian/gaussian/gdv-20250101-j30+/gdv/local/l101.exe)
 
  Hrant - IAPOps =                         0
  Hrant - IAPOp1 =                         0
  Hrant - IAPOp2 =                         0
  Hrant - DoAP   =   F
 
 Structure from the checkpoint file:  "H2O_CAMB3LYP_STO3G.chk"
 -------------------------------
 Initial Stability Check for H2O
 -------------------------------
 Charge =     0 Multiplicity =     1
 Z-Matrix found in chk file.
 O,0,0.,0.,0.
 H,0,0.758602,0.,0.504284
 H,0,-0.758602,0.,0.504284
 
 Recover connectivity data from disk.
 Initializing the GIC definitions file.
 ITRead=  0  0  0
 MicOpt= -1 -1 -1
 NAtoms=      3 NQM=        3 NQMF=       0 NMMI=      0 NMMIF=      0
                NMic=       0 NMicF=      0.
                    Isotopes and Nuclear Properties:
 (Nuclear quadrupole moments (NQMom) in fm**2, nuclear magnetic moments (NMagM)
  in nuclear magnetons)

  Atom         1           2           3
 IAtWgt=          16           1           1
 AtmWgt=  15.9949146   1.0078250   1.0078250
 NucSpn=           0           1           1
 AtZEff=    5.600000    1.000000    1.000000
 NQMom=    0.0000000   0.0000000   0.0000000
 NMagM=    0.0000000   2.7928460   2.7928460
 AtZNuc=   8.0000000   1.0000000   1.0000000
 Leave Link  101 at Sat Aug  2 15:31:29 2025, MaxMem= 12348030976 cpu:               3.7 elap:               3.3
 (Enter /home/hhratchian/gaussian/gdv-20250101-j30+/gdv/l103.exe)

 GradGradGradGradGradGradGradGradGradGradGradGradGradGradGradGradGradGrad
 Berny optimization.
 Initialization pass.
                           ----------------------------
                           !    Initial Parameters    !
                           ! (Angstroms and Degrees)  !
 --------------------------                            --------------------------
 ! Name  Definition              Value          Derivative Info.                !
 --------------------------------------------------------------------------------
 ! R1    R(1,2)                  0.9109         estimate D2E/DX2                !
 ! R2    R(1,3)                  0.9109         estimate D2E/DX2                !
 ! A1    A(2,1,3)              112.7717         estimate D2E/DX2                !
 --------------------------------------------------------------------------------
 Trust Radius=3.00D-01 FncErr=1.00D-07 GrdErr=1.00D-07 EigMax=2.50D+02 EigMin=1.00D-04
 Number of steps in this run=     20 maximum allowed number of steps=    100.
 GradGradGradGradGradGradGradGradGradGradGradGradGradGradGradGradGradGrad

 Leave Link  103 at Sat Aug  2 15:31:29 2025, MaxMem= 12348030976 cpu:               0.1 elap:               0.0
 (Enter /home/hhratchian/gaussian/gdv-20250101-j30+/gdv/l202.exe)
                          Input orientation:                          
 ---------------------------------------------------------------------
 Center     Atomic      Atomic             Coordinates (Angstroms)
 Number     Number       Type             X           Y           Z
 ---------------------------------------------------------------------
      1          8           0       -0.000000   -0.000000    0.000000
      2          1           0        0.758602    0.000000    0.504284
      3          1           0       -0.758602   -0.000000    0.504284
 ---------------------------------------------------------------------
                    Distance matrix (angstroms):
                    1          2          3
     1  O    0.000000
     2  H    0.910922   0.000000
     3  H    0.910922   1.517204   0.000000
 Stoichiometry    H2O
 Framework group  C2V[C2(O),SGV(H2)]
 Deg. of freedom     2
 Full point group                 C2V     NOp   4
 RotChk:  IX=0 Diff= 6.38D-16
 Largest Abelian subgroup         C2V     NOp   4
 Largest concise Abelian subgroup C2      NOp   2
                         Standard orientation:                         
 ---------------------------------------------------------------------
 Center     Atomic      Atomic             Coordinates (Angstroms)
 Number     Number       Type             X           Y           Z
 ---------------------------------------------------------------------
      1          8           0       -0.000000   -0.000000    0.100857
      2          1           0       -0.000000    0.758602   -0.403427
      3          1           0       -0.000000   -0.758602   -0.403427
 ---------------------------------------------------------------------
 Rotational constants (GHZ):        1110.1894251         435.6864908         312.8935057
 Leave Link  202 at Sat Aug  2 15:31:29 2025, MaxMem= 12348030976 cpu:               1.5 elap:               0.0
 (Enter /home/hhratchian/gaussian/gdv-20250101-j30+/gdv/local/l301.exe)
 Basis read from chk: "H2O_CAMB3LYP_STO3G.chk" (5D, 7F)
 No pseudopotential information found on chk file.
 There are     4 symmetry adapted cartesian basis functions of A1  symmetry.
 There are     0 symmetry adapted cartesian basis functions of A2  symmetry.
 There are     1 symmetry adapted cartesian basis functions of B1  symmetry.
 There are     2 symmetry adapted cartesian basis functions of B2  symmetry.
 There are     4 symmetry adapted basis functions of A1  symmetry.
 There are     0 symmetry adapted basis functions of A2  symmetry.
 There are     1 symmetry adapted basis functions of B1  symmetry.
 There are     2 symmetry adapted basis functions of B2  symmetry.
     7 basis functions,    21 primitive gaussians,     7 cartesian basis functions
     5 alpha electrons        5 beta electrons
       nuclear repulsion energy         9.6435792538 Hartrees.
 IExCor=   2004019 DFT=T Ex+Corr=CAM-B3LYP ScaHFX=  1.000000
 ScaDFX=  1.000000  1.000000  1.000000  0.810000  1.000000  0.000000
 ScaDFX=  0.000000  0.000000  0.000000  0.000000  0.000000  0.000000
 Grid=SuperFine IRanWt=     -1 IRanGd=            0 ICorTp=0 IEDCtl=  2004
 HFx  wShort=  0.000000 wLong=  0.330000 cFull=  0.190000 cShort=  0.000000 cLong=  0.460000
 DFx  wShort=  0.330000 wLong=  0.000000 cFull=  0.350000 cShort=  0.460000 cLong=  0.000000
 NAtoms=    3 NActive=    3 NUniq=    2 SFac= 2.25D+00 NAtFMM=   60 NAOKFM=F Big=F
 Integral buffers will be    131072 words long.
 Raffenetti 2 integral format.
 Two-electron integral symmetry is turned on.
 No density basis found on file 200724.
 Leave Link  301 at Sat Aug  2 15:31:29 2025, MaxMem= 12348030976 cpu:               0.7 elap:               0.1
 (Enter /home/hhratchian/gaussian/gdv-20250101-j30+/gdv/l302.exe)
 NPDir=0 NMtPBC=     1 NCelOv=     1 NCel=       1 NClECP=     1 NCelD=      1
         NCelK=      1 NCelE2=     1 NClLst=     1 CellRange=     0.0.
 One-electron integrals computed using PRISM.
 One-electron integral symmetry used in STVInt
 NBasis=     7 RedAO= T EigKep=  3.13D-01  NBF=     4     0     1     2
 NBsUse=     7 1.00D-06 EigRej= -1.00D+00 NBFU=     4     0     1     2
 Precomputing XC quadrature grid using
 IXCGrd=   9 Grid=SuperFine IRanWt=          -1 IRanGd=           0 AccXCQ= 0.00D+00.
 Generated NRdTot=       0 NPtTot=      186032 NUsed=           0 NTot=          64
 NSgBfM=     7     7     7     7     7 MxSgAt=     3 MxSgA2=     3 SizInc=   0.000
 NMBTot=     1274 MaxBatPerAtom=      123 MaxMicBPerAtom=      427 NBfPt=             1123475.
 Leave Link  302 at Sat Aug  2 15:31:29 2025, MaxMem= 12348030976 cpu:               4.4 elap:               0.1
 (Enter /home/hhratchian/gaussian/gdv-20250101-j30+/gdv/l303.exe)
 DipDrv:  MaxL=1.
 Leave Link  303 at Sat Aug  2 15:31:29 2025, MaxMem= 12348030976 cpu:               0.6 elap:               0.0
 (Enter /home/hhratchian/gaussian/gdv-20250101-j30+/gdv/l401.exe)
 Initial guess from the checkpoint file:  "H2O_CAMB3LYP_STO3G.chk"
 B after Tr=    -0.000000    0.000000    0.000000
         Rot=    1.000000    0.000000    0.000000   -0.000000 Ang=   0.00 deg.
 AO Guess basis will be translated and rotated to current coordinates.
 JPrj=2 DoOrth=T DoCkMO=T.
 Initial guess orbital symmetries:
       Occupied  (A1) (A1) (B2) (A1) (B1)
       Virtual   (A1) (B2)
 The electronic state of the initial guess is 1-A1.
 Leave Link  401 at Sat Aug  2 15:31:29 2025, MaxMem= 12348030976 cpu:               2.7 elap:               0.1
 (Enter /home/hhratchian/gaussian/gdv-20250101-j30+/gdv/local/l502.exe)
 Keep R1 ints in memory in symmetry-blocked form, NReq=47924202.
 FoFCou: FMM=F IPFlag=           0 FMFlag=           0 FMFlg1=           0
         NFxFlg=           0 DoJE=F BraDBF=F KetDBF=F FulRan=T
         wScrn=  0.000000 ICntrl=       600 IOpCl=  0 I1Cent=           0 NGrid=           0
         NMat0=    1 NMatS0=     28 NMatT0=    0 NMatD0=    1 NMtDS0=    0 NMtDT0=    0
 Petite list used in FoFCou.
 Closed shell SCF:
 Using DIIS extrapolation, IDIIS=    10.
 NGot= 12348030976 LenX= 12348027978 LenY= 12348027096
 Requested convergence on RMS density matrix=1.00D-08 within 128 cycles.
 Requested convergence on MAX density matrix=1.00D-06.
 Requested convergence on             energy=1.00D-06.
 Level shift goal  0.100 maximum shift  0.100.
 No special actions if energy rises.
 Dynamic level shift is on during FON iterations.
 
  Hrant - CycOpn.
 

 Cycle   1  Pass 1  IDiag  1:
 E= -75.2574563462194    
 DIIS: error= 9.52D-09 at cycle   1 NSaved=   1.
 NSaved= 1 IEnMin= 1 EnMin= -75.2574563462194     IErMin= 1 ErrMin= 9.52D-09
 ErrMax= 9.52D-09  0.00D+00 EMaxC= 1.00D+00 BMatC= 2.98D-16 BMatP= 2.98D-16
 Rises=F IDIUse=1 WtCom= 1.00D+00 WtEn= 0.00D+00
 Coeff-Com:  0.100D+01
 Coeff:      0.100D+01
 Gap=     0.668 Goal=     0.100 Shift=    0.000
 RMSDP=6.73D-09 MaxDP=2.23D-08              OVMax= 0.00D+00

 SCF Done:  E(RCAM-B3LYP) =  -75.2574563462     A.U. after    1 cycles
            NFock=  1  Conv=0.67D-08     -V/T= 2.0076
 KE=          74.689700 PE=        -197.890061 EE=          38.299326
 Leave Link  502 at Sat Aug  2 15:31:29 2025, MaxMem= 12348030976 cpu:               4.4 elap:               0.1
 (Enter /home/hhratchian/gaussian/gdv-20250101-j30+/gdv/l601.exe)
 Copying SCF densities to generalized density rwf, IOpCl= 0 IROHF=0.
 
 **********************************************************************
 
               Population analysis using the SCF Density.
 
 **********************************************************************
 
 Orbital symmetries:
       Occupied  (A1) (A1) (B2) (A1) (B1)
       Virtual   (A1) (B2)
 The electronic state is 1-A1.
 Alpha  occ. eigenvalues --      -18.88766      -1.02457      -0.54257      -0.27312      -0.21155
 Alpha virt. eigenvalues --        0.45635       0.61787
          Condensed to atoms (all electrons):
               1          2          3
     1  O    7.871803   0.278750   0.278750
     2  H    0.278750   0.555916  -0.049317
     3  H    0.278750  -0.049317   0.555916
 Mulliken charges:
               1
     1  O   -0.429303
     2  H    0.214651
     3  H    0.214651
 Sum of Mulliken charges=  -0.00000
 Mulliken charges with hydrogens summed into heavy atoms:
               1
     1  O   -0.000000
 Electronic spatial extent (au):  <R**2>=             17.2029
 Charge=             -0.0000 electrons
 Dipole moment (field-independent basis, Debye):
    X=             -0.0000    Y=             -0.0000    Z=             -1.7151  Tot=              1.7151
 Quadrupole moment (field-independent basis, Debye-Ang):
   XX=             -6.0447   YY=             -4.1202   ZZ=             -5.4909
   XY=              0.0000   XZ=              0.0000   YZ=              0.0000
 Traceless Quadrupole moment (field-independent basis, Debye-Ang):
   XX=             -0.8261   YY=              1.0984   ZZ=             -0.2723
   XY=              0.0000   XZ=              0.0000   YZ=              0.0000
 Octapole moment (field-independent basis, Debye-Ang**2):
  XXX=              0.0000  YYY=              0.0000  ZZZ=             -0.2249  XYY=             -0.0000
  XXY=              0.0000  XXZ=             -0.0320  XZZ=              0.0000  YZZ=             -0.0000
  YYZ=             -0.5716  XYZ=             -0.0000
 Hexadecapole moment (field-independent basis, Debye-Ang**3):
 XXXX=             -3.1776 YYYY=             -6.0982 ZZZZ=             -4.3743 XXXY=             -0.0000
 XXXZ=             -0.0000 YYYX=             -0.0000 YYYZ=             -0.0000 ZZZX=             -0.0000
 ZZZY=              0.0000 XXYY=             -1.7200 XXZZ=             -1.2798 YYZZ=             -1.6139
 XXYZ=              0.0000 YYXZ=              0.0000 ZZXY=             -0.0000
 N-N=           9.643579 E-N=        -197.890061  KE=          74.689700
 Symmetry A1   KE=          66.675980
 Symmetry A2   KE=           0.000000
 Symmetry B1   KE=           5.057462
 Symmetry B2   KE=           2.956257
 No NMR shielding tensors so no spin-rotation constants.
 Leave Link  601 at Sat Aug  2 15:31:29 2025, MaxMem= 12348030976 cpu:               4.1 elap:               0.1
 (Enter /home/hhratchian/gaussian/gdv-20250101-j30+/gdv/l701.exe)
 ... and contract with generalized density number  0.
 Compute integral first derivatives.
 Leave Link  701 at Sat Aug  2 15:31:30 2025, MaxMem= 12348030976 cpu:               3.7 elap:               0.1
 (Enter /home/hhratchian/gaussian/gdv-20250101-j30+/gdv/l702.exe)
 L702 exits ... SP integral derivatives will be done elsewhere.
 Leave Link  702 at Sat Aug  2 15:31:30 2025, MaxMem= 12348030976 cpu:               1.3 elap:               0.1
 (Enter /home/hhratchian/gaussian/gdv-20250101-j30+/gdv/l703.exe)
 Integral derivatives from FoFJK, PRISM(SPDF).
 Compute integral first derivatives, UseDBF=F ICtDFT=           0.
 Calling FoFJK, ICntrl=      2127 FMM=F ISym2X=1 I1Cent= 0 IOpClX= 0 NMat=1 NMatS=1 NMatT=0.
 FoFJK:  IHMeth= 1 ICntrl=    2127 DoSepK=T KAlg= 0 I1Cent=           0 FoldK=F
 IRaf=         1 NMat=       1 IRICut=       1 DoRegI=T DoRafI=F ISym2E= 1 IDoP0=0 IntGTp=1.
 FoFCou: FMM=F IPFlag=           0 FMFlag=      100000 FMFlg1=         800
         NFxFlg=           0 DoJE=F BraDBF=F KetDBF=F FulRan=T
         wScrn=  0.000000 ICntrl=      2527 IOpCl=  0 I1Cent=           0 NGrid=           0
         NMat0=    1 NMatS0=      1 NMatT0=    0 NMatD0=    1 NMtDS0=    0 NMtDT0=    0
 Petite list used in FoFCou.
 Leave Link  703 at Sat Aug  2 15:31:30 2025, MaxMem= 12348030976 cpu:               5.4 elap:               0.2
 (Enter /home/hhratchian/gaussian/gdv-20250101-j30+/gdv/l716.exe)
 Dipole        =-4.31472263D-17 0.00000000D+00-6.74766797D-01
 ***** Axes restored to original set *****
 -------------------------------------------------------------------
 Center     Atomic                   Forces (Hartrees/Bohr)
 Number     Number              X              Y              Z
 -------------------------------------------------------------------
      1        8          -0.000000000   -0.000000000   -0.188819596
      2        1           0.092572916    0.000000000    0.094409798
      3        1          -0.092572916    0.000000000    0.094409798
 -------------------------------------------------------------------
 Cartesian Forces:  Max     0.188819596 RMS     0.088580628
 Leave Link  716 at Sat Aug  2 15:31:30 2025, MaxMem= 12348030976 cpu:               0.1 elap:               0.0
 (Enter /home/hhratchian/gaussian/gdv-20250101-j30+/gdv/l103.exe)

 GradGradGradGradGradGradGradGradGradGradGradGradGradGradGradGradGradGrad
 Berny optimization.
 FormGI is forming the generalized inverse of G from B-inverse, IUseBI=4.
 NTrRot=    -1 NTRed=     3 NAtoms=     3 NSkip=     0 NRank=     3 IsLin=F EigSml=8.5452D-01
 Internal  Forces:  Max     0.129358296 RMS     0.109068350
 Search for a local minimum.
 Step number   1 out of a maximum of   20
 All quantities printed in internal units (Hartrees-Bohrs-Radians)
 RMS Force = .10907D+00 SwitMx=.10000D-02 MixMth= 1
 Mixed Optimization -- RFO/linear search
 Second derivative matrix not updated -- first step.
 The second derivative matrix:
                          R1        R2        A1
           R1           0.67525
           R2           0.00000   0.67525
           A1           0.00000   0.00000   0.16000
 ITU=  0
     Eigenvalues ---    0.16000   0.67525   0.67525
 RFO step:  Lambda=-5.60427965D-02 EMin= 1.60000000D-01
 Linear search not attempted -- first point.
 Maximum step size (   0.300) exceeded in Quadratic search.
    -- Step size scaled by   0.904
 GrdOpt: GIC=T ITstSp=  0 NP=   1 DidLin=F DidDIS=F IDoGRo=0 IDoRot=0
         ISwap=1 XLin= 0.000 DXMaxT= 0.300
 Iteration  1 RMS(Cart)=  0.06522626 RMS(Int)=  0.01174721
 Iteration  2 RMS(Cart)=  0.00791055 RMS(Int)=  0.00007005
 Iteration  3 RMS(Cart)=  0.00002668 RMS(Int)=  0.00000000
 Iteration  4 RMS(Cart)=  0.00000000 RMS(Int)=  0.00000000
 ClnCor:  largest displacement from symmetrization is 1.38D-16 for atom     1.
 Variable       Old X    -DE/DX   Delta X   Delta X   Delta X     New X
                                 (Linear)    (Quad)   (Total)
    R1        1.72139   0.12936   0.00000   0.15989   0.15989   1.88128
    R2        1.72139   0.12936   0.00000   0.15989   0.15989   1.88128
    A1        1.96824  -0.04712   0.00000  -0.19716  -0.19716   1.77108
         Item               Value     Threshold  Converged?
 Maximum Force            0.129358     0.000450     NO 
 RMS     Force            0.109068     0.000300     NO 
 Maximum Displacement     0.158434     0.001800     NO 
 RMS     Displacement     0.113599     0.001200     NO 
 Predicted change in Energy=-3.028451D-02
 Lowest energy point so far.  Saving SCF results.
 GradGradGradGradGradGradGradGradGradGradGradGradGradGradGradGradGradGrad

 Leave Link  103 at Sat Aug  2 15:31:30 2025, MaxMem= 12348030976 cpu:               2.6 elap:               0.1
 (Enter /home/hhratchian/gaussian/gdv-20250101-j30+/gdv/l202.exe)
                          Input orientation:                          
 ---------------------------------------------------------------------
 Center     Atomic      Atomic             Coordinates (Angstroms)
 Number     Number       Type             X           Y           Z
 ---------------------------------------------------------------------
      1          8           0       -0.000000    0.000000   -0.083840
      2          1           0        0.770798    0.000000    0.546204
      3          1           0       -0.770798   -0.000000    0.546204
 ---------------------------------------------------------------------
                    Distance matrix (angstroms):
                    1          2          3
     1  O    0.000000
     2  H    0.995532   0.000000
     3  H    0.995532   1.541596   0.000000
 Stoichiometry    H2O
 Framework group  C2V[C2(O),SGV(H2)]
 Deg. of freedom     2
 Full point group                 C2V     NOp   4
 RotChk:  IX=0 Diff= 7.78D-16
 Largest Abelian subgroup         C2V     NOp   4
 Largest concise Abelian subgroup C2      NOp   2
                         Standard orientation:                         
 ---------------------------------------------------------------------
 Center     Atomic      Atomic             Coordinates (Angstroms)
 Number     Number       Type             X           Y           Z
 ---------------------------------------------------------------------
      1          8           0        0.000000    0.000000    0.126009
      2          1           0        0.000000    0.770798   -0.504035
      3          1           0       -0.000000   -0.770798   -0.504035
 ---------------------------------------------------------------------
 Rotational constants (GHZ):         711.2241100         422.0081076         264.8551074
 Leave Link  202 at Sat Aug  2 15:31:30 2025, MaxMem= 12348030976 cpu:               1.3 elap:               0.0
 (Enter /home/hhratchian/gaussian/gdv-20250101-j30+/gdv/local/l301.exe)
 Basis read from rwf:  (5D, 7F)
 No pseudopotential information found on rwf file.
 There are     4 symmetry adapted cartesian basis functions of A1  symmetry.
 There are     0 symmetry adapted cartesian basis functions of A2  symmetry.
 There are     1 symmetry adapted cartesian basis functions of B1  symmetry.
 There are     2 symmetry adapted cartesian basis functions of B2  symmetry.
 There are     4 symmetry adapted basis functions of A1  symmetry.
 There are     0 symmetry adapted basis functions of A2  symmetry.
 There are     1 symmetry adapted basis functions of B1  symmetry.
 There are     2 symmetry adapted basis functions of B2  symmetry.
     7 basis functions,    21 primitive gaussians,     7 cartesian basis functions
     5 alpha electrons        5 beta electrons
       nuclear repulsion energy         8.8480986804 Hartrees.
 IExCor=   2004019 DFT=T Ex+Corr=CAM-B3LYP ScaHFX=  1.000000
 ScaDFX=  1.000000  1.000000  1.000000  0.810000  1.000000  0.000000
 ScaDFX=  0.000000  0.000000  0.000000  0.000000  0.000000  0.000000
 Grid=SuperFine IRanWt=     -1 IRanGd=            0 ICorTp=0 IEDCtl=  2004
 HFx  wShort=  0.000000 wLong=  0.330000 cFull=  0.190000 cShort=  0.000000 cLong=  0.460000
 DFx  wShort=  0.330000 wLong=  0.000000 cFull=  0.350000 cShort=  0.460000 cLong=  0.000000
 NAtoms=    3 NActive=    3 NUniq=    2 SFac= 2.25D+00 NAtFMM=   60 NAOKFM=F Big=F
 Integral buffers will be    131072 words long.
 Raffenetti 2 integral format.
 Two-electron integral symmetry is turned on.
 No density basis found on file    724.
 Leave Link  301 at Sat Aug  2 15:31:30 2025, MaxMem= 12348030976 cpu:               0.2 elap:               0.0
 (Enter /home/hhratchian/gaussian/gdv-20250101-j30+/gdv/l302.exe)
 NPDir=0 NMtPBC=     1 NCelOv=     1 NCel=       1 NClECP=     1 NCelD=      1
         NCelK=      1 NCelE2=     1 NClLst=     1 CellRange=     0.0.
 One-electron integrals computed using PRISM.
 One-electron integral symmetry used in STVInt
 NBasis=     7 RedAO= T EigKep=  3.67D-01  NBF=     4     0     1     2
 NBsUse=     7 1.00D-06 EigRej= -1.00D+00 NBFU=     4     0     1     2
 Precomputing XC quadrature grid using
 IXCGrd=   9 Grid=SuperFine IRanWt=          -1 IRanGd=           0 AccXCQ= 0.00D+00.
 Generated NRdTot=       0 NPtTot=      186216 NUsed=           0 NTot=          64
 NSgBfM=     7     7     7     7     7 MxSgAt=     3 MxSgA2=     3 SizInc=   0.000
 NMBTot=     1269 MaxBatPerAtom=      123 MaxMicBPerAtom=      424 NBfPt=             1125206.
 Leave Link  302 at Sat Aug  2 15:31:30 2025, MaxMem= 12348030976 cpu:               3.6 elap:               0.1
 (Enter /home/hhratchian/gaussian/gdv-20250101-j30+/gdv/l303.exe)
 DipDrv:  MaxL=1.
 Leave Link  303 at Sat Aug  2 15:31:30 2025, MaxMem= 12348030976 cpu:               1.4 elap:               0.1
 (Enter /home/hhratchian/gaussian/gdv-20250101-j30+/gdv/l401.exe)
 Initial guess from the checkpoint file:  "H2O_CAMB3LYP_STO3G.chk"
 B after Tr=    -0.000000    0.000000   -0.000000
         Rot=    1.000000    0.000000    0.000000    0.000000 Ang=   0.00 deg.
 AO Guess basis will be translated and rotated to current coordinates.
 JPrj=2 DoOrth=T DoCkMO=T.
 Initial guess orbital symmetries:
       Occupied  (A1) (A1) (B2) (A1) (B1)
       Virtual   (A1) (B2)
 The electronic state of the initial guess is 1-A1.
 Generating alternative initial guess.
 ExpMin= 1.69D-01 ExpMax= 1.31D+02 ExpMxC= 1.31D+02 IAcc=3 Grid=SuperFine AccDes= 0.00D+00
 Harris functional with IExCor=10009 and Grid=SuperFine diagonalized for initial guess.
 HarFok:  IExCor=   10009 AccDes= 0.00D+00 Grid=SuperFine IDoV= 1 UseB2=F ITyADJ=14 ICtDFT=  3500011
 FoFCou: FMM=F IPFlag=           0 FMFlag=      100000 FMFlg1=           0
         NFxFlg=           0 DoJE=T BraDBF=F KetDBF=T FulRan=T
         wScrn=  0.000000 ICntrl=       500 IOpCl=  0 I1Cent=   200000004 NGrid=           0
         NMat0=    1 NMatS0=      1 NMatT0=    0 NMatD0=    1 NMtDS0=    0 NMtDT0=    0
 Petite list used in FoFCou.
 Harris En= -75.3122231010119    
 Leave Link  401 at Sat Aug  2 15:31:30 2025, MaxMem= 12348030976 cpu:               4.5 elap:               0.2
 (Enter /home/hhratchian/gaussian/gdv-20250101-j30+/gdv/local/l502.exe)
 Keep R1 ints in memory in symmetry-blocked form, NReq=47924202.
 FoFCou: FMM=F IPFlag=           0 FMFlag=           0 FMFlg1=           0
         NFxFlg=           0 DoJE=F BraDBF=F KetDBF=F FulRan=T
         wScrn=  0.000000 ICntrl=       600 IOpCl=  0 I1Cent=           0 NGrid=           0
         NMat0=    1 NMatS0=     28 NMatT0=    0 NMatD0=    1 NMtDS0=    0 NMtDT0=    0
 Petite list used in FoFCou.
 Closed shell SCF:
 Using DIIS extrapolation, IDIIS=    10.
 NGot= 12348030976 LenX= 12348027978 LenY= 12348027096
 Requested convergence on RMS density matrix=1.00D-08 within 128 cycles.
 Requested convergence on MAX density matrix=1.00D-06.
 Requested convergence on             energy=1.00D-06.
 Level shift goal  0.100 maximum shift  0.100.
 No special actions if energy rises.
 Dynamic level shift is on during FON iterations.
 
  Hrant - CycOpn.
 

 Cycle   1  Pass 1  IDiag  1:
 E= -75.2809612658523    
 DIIS: error= 2.09D-02 at cycle   1 NSaved=   1.
 NSaved= 1 IEnMin= 1 EnMin= -75.2809612658523     IErMin= 1 ErrMin= 2.09D-02
 ErrMax= 2.09D-02  0.00D+00 EMaxC= 1.00D+00 BMatC= 1.43D-03 BMatP= 1.43D-03
 Rises=F IDIUse=1 WtCom= 1.00D+00 WtEn= 0.00D+00
 Coeff-Com:  0.100D+01
 Coeff:      0.100D+01
 Recover alternate guess density for next cycle.
 RMSDP=2.80D-02 MaxDP=1.20D-01              OVMax= 0.00D+00

 Cycle   2  Pass 1  IDiag  1:
 E= -75.2383482081919     Delta-E=        0.042613057660 Rises=F Damp=F AM=T Ri=T Fa=F
 Switch densities from cycles 1 and 2 for lowest energy.
 DIIS: error= 7.23D-02 at cycle   2 NSaved=   2.
 NSaved= 2 IEnMin= 1 EnMin= -75.2809612658523     IErMin= 1 ErrMin= 2.09D-02
 ErrMax= 7.23D-02  0.00D+00 EMaxC= 1.00D+00 BMatC= 1.70D-02 BMatP= 1.43D-03
 Rises=T IDIUse=1 WtCom= 1.00D+00 WtEn= 0.00D+00
 Coeff-Com:  0.116D+01-0.156D+00
 Coeff:      0.116D+01-0.156D+00
 Gap=     0.596 Goal=   None    Shift=    0.000
 GapD=    0.596 DampG=2.000 DampE=0.500 DampFc=0.0000 IDamp=-1.
 Damping current iteration by 0.00D+00
 RMSDP=1.91D-02 MaxDP=6.30D-02 DE= 4.26D-02 OVMax= 0.00D+00

 Cycle   3  Pass 1  IDiag  1:
 E= -75.2809612658523     Delta-E=       -0.042613057660 Rises=F Damp=T AM=F Ri=F Fa=F
 DIIS: error= 2.09D-02 at cycle   3 NSaved=   3.
 NSaved= 3 IEnMin= 1 EnMin= -75.2809612658523     IErMin= 1 ErrMin= 2.09D-02
 ErrMax= 2.09D-02  0.00D+00 EMaxC= 1.00D+00 BMatC= 1.43D-03 BMatP= 1.43D-03
 Rises=F IDIUse=1 WtCom= 1.00D+00 WtEn= 0.00D+00
 Coeff-Com: -0.267D+01-0.156D+00 0.382D+01
 Coeff:     -0.267D+01-0.156D+00 0.382D+01
 Gap=     0.598 Goal=     0.100 Shift=    0.000
 Skip diagonalization as Alpha Fock matrix is already diagonal.
 GapD=    0.598 DampG=2.000 DampE=0.500 DampFc=1.0000 IDamp=-1.
 RMSDP=9.32D-32 MaxDP=4.20D-31 DE=-4.26D-02 OVMax= 0.00D+00

 Cycle   4  Pass 1  IDiag  1:
 E= -75.2809612658523     Delta-E=        0.000000000000 Rises=F Damp=F AM=F Ri=F Fa=F
 DIIS: error= 2.09D-02 at cycle   4 NSaved=   4.
 NSaved= 4 IEnMin= 1 EnMin= -75.2809612658523     IErMin= 1 ErrMin= 2.09D-02
 ErrMax= 2.09D-02  0.00D+00 EMaxC= 1.00D+00 BMatC= 1.43D-03 BMatP= 1.43D-03
 Rises=F IDIUse=1 WtCom= 1.00D+00 WtEn= 0.00D+00
 SCFDIS: NSaved=  4 BigCof=    0.00 CofMax=   50.00 Det=-8.67D-19
 Inversion failed.  Reducing to  3 matrices.
 SCFDIS: NSaved=  3 BigCof=    0.00 CofMax=   50.00 Det=-8.67D-19
 Inversion failed.  Reducing to  2 matrices.
 SCFDIS: NSaved=  2 BigCof=    0.00 CofMax=   50.00 Det= 0.00D+00
 Coeff-Com:  0.000D+00 0.100D+01
 Coeff:      0.000D+00 0.100D+01
 Gap=     0.589 Goal=     0.100 Shift=    0.000
 GapD=    0.589 DampG=2.000 DampE=0.500 DampFc=1.0000 IDamp=-1.
 RMSDP=2.13D-02 MaxDP=7.13D-02 DE= 0.00D+00 OVMax= 0.00D+00

 Cycle   5  Pass 1  IDiag  1:
 E= -75.2861591955782     Delta-E=       -0.005197929726 Rises=F Damp=F AM=F Ri=F Fa=F
 DIIS: error= 9.68D-03 at cycle   5 NSaved=   3.
 NSaved= 3 IEnMin= 3 EnMin= -75.2861591955782     IErMin= 3 ErrMin= 9.68D-03
 ErrMax= 9.68D-03  0.00D+00 EMaxC= 1.00D+00 BMatC= 2.93D-04 BMatP= 1.43D-03
 Rises=F IDIUse=1 WtCom= 1.00D+00 WtEn= 0.00D+00
 SCFDIS: NSaved=  3 BigCof=    0.00 CofMax=   50.00 Det= 1.54D-18
 Inversion failed.  Reducing to  2 matrices.
 Coeff-Com:  0.239D+00 0.761D+00
 Coeff:      0.239D+00 0.761D+00
 Gap=     0.610 Goal=     0.100 Shift=    0.000
 GapD=    0.610 DampG=2.000 DampE=1.000 DampFc=2.0000 IDamp=-1.
 RMSDP=4.57D-03 MaxDP=1.74D-02 DE=-5.20D-03 OVMax= 0.00D+00

 Cycle   6  Pass 1  IDiag  1:
 E= -75.2869179276725     Delta-E=       -0.000758732094 Rises=F Damp=F AM=F Ri=F Fa=F
 DIIS: error= 1.53D-03 at cycle   6 NSaved=   3.
 NSaved= 3 IEnMin= 3 EnMin= -75.2869179276725     IErMin= 3 ErrMin= 1.53D-03
 ErrMax= 1.53D-03  0.00D+00 EMaxC= 1.00D+00 BMatC= 1.07D-05 BMatP= 2.93D-04
 Rises=F IDIUse=1 WtCom= 1.00D+00 WtEn= 0.00D+00
 Coeff-Com: -0.722D-01 0.170D-01 0.106D+01
 Coeff:     -0.722D-01 0.170D-01 0.106D+01
 Gap=     0.609 Goal=     0.100 Shift=    0.000
 GapD=    0.609 DampG=2.000 DampE=1.000 DampFc=2.0000 IDamp=-1.
 RMSDP=2.22D-03 MaxDP=7.47D-03 DE=-7.59D-04 OVMax= 0.00D+00

 Cycle   7  Pass 1  IDiag  1:
 E= -75.2869807944560     Delta-E=       -0.000062866783 Rises=F Damp=F AM=F Ri=F Fa=F
 DIIS: error= 2.59D-04 at cycle   7 NSaved=   4.
 NSaved= 4 IEnMin= 4 EnMin= -75.2869807944560     IErMin= 4 ErrMin= 2.59D-04
 ErrMax= 2.59D-04  0.00D+00 EMaxC= 1.00D+00 BMatC= 1.76D-07 BMatP= 1.07D-05
 Rises=F IDIUse=1 WtCom= 1.00D+00 WtEn= 0.00D+00
 Coeff-Com:  0.424D-02-0.258D-01-0.116D+00 0.114D+01
 Coeff:      0.424D-02-0.258D-01-0.116D+00 0.114D+01
 Gap=     0.609 Goal=     0.100 Shift=    0.000
 RMSDP=2.59D-04 MaxDP=6.90D-04 DE=-6.29D-05 OVMax= 0.00D+00

 Cycle   8  Pass 1  IDiag  1:
 E= -75.2869817035745     Delta-E=       -0.000000909119 Rises=F Damp=F AM=F Ri=F Fa=F
 DIIS: error= 6.87D-06 at cycle   8 NSaved=   5.
 NSaved= 5 IEnMin= 5 EnMin= -75.2869817035745     IErMin= 5 ErrMin= 6.87D-06
 ErrMax= 6.87D-06  0.00D+00 EMaxC= 1.00D+00 BMatC= 1.89D-10 BMatP= 1.76D-07
 Rises=F IDIUse=1 WtCom= 1.00D+00 WtEn= 0.00D+00
 Coeff-Com:  0.793D-04 0.180D-02 0.853D-03-0.622D-01 0.106D+01
 Coeff:      0.793D-04 0.180D-02 0.853D-03-0.622D-01 0.106D+01
 Gap=     0.609 Goal=     0.100 Shift=    0.000
 RMSDP=5.48D-06 MaxDP=2.14D-05 DE=-9.09D-07 OVMax= 0.00D+00

 Cycle   9  Pass 1  IDiag  1:
 E= -75.2869817042272     Delta-E=       -0.000000000653 Rises=F Damp=F AM=F Ri=F Fa=F
 DIIS: error= 5.71D-08 at cycle   9 NSaved=   6.
 NSaved= 6 IEnMin= 6 EnMin= -75.2869817042272     IErMin= 6 ErrMin= 5.71D-08
 ErrMax= 5.71D-08  0.00D+00 EMaxC= 1.00D+00 BMatC= 1.07D-14 BMatP= 1.89D-10
 Rises=F IDIUse=1 WtCom= 1.00D+00 WtEn= 0.00D+00
 Coeff-Com:  0.936D-06-0.207D-04-0.672D-04 0.934D-03-0.871D-02 0.101D+01
 Coeff:      0.936D-06-0.207D-04-0.672D-04 0.934D-03-0.871D-02 0.101D+01
 Gap=     0.609 Goal=     0.100 Shift=    0.000
 RMSDP=4.00D-08 MaxDP=1.10D-07 DE=-6.53D-10 OVMax= 0.00D+00

 Cycle  10  Pass 1  IDiag  1:
 E= -75.2869817042273     Delta-E=       -0.000000000000 Rises=F Damp=F AM=F Ri=F Fa=F
 DIIS: error= 2.28D-10 at cycle  10 NSaved=   7.
 NSaved= 7 IEnMin= 7 EnMin= -75.2869817042273     IErMin= 7 ErrMin= 2.28D-10
 ErrMax= 2.28D-10  0.00D+00 EMaxC= 1.00D+00 BMatC= 2.19D-19 BMatP= 1.07D-14
 Rises=F IDIUse=1 WtCom= 1.00D+00 WtEn= 0.00D+00
 Coeff-Com: -0.661D-10 0.704D-08 0.873D-07-0.172D-05 0.215D-04-0.321D-02
 Coeff-Com:  0.100D+01
 Coeff:     -0.661D-10 0.704D-08 0.873D-07-0.172D-05 0.215D-04-0.321D-02
 Coeff:      0.100D+01
 Gap=     0.609 Goal=     0.100 Shift=    0.000
 Skip diagonalization as Alpha Fock matrix is already diagonal.
 RMSDP=8.79D-32 MaxDP=3.90D-31 DE=-2.84D-14 OVMax= 0.00D+00

 SCF Done:  E(RCAM-B3LYP) =  -75.2869817042     A.U. after   10 cycles
            NFock= 10  Conv=0.88D-31     -V/T= 2.0103
 KE=          74.516250 PE=        -196.259603 EE=          37.608273
 Leave Link  502 at Sat Aug  2 15:31:31 2025, MaxMem= 12348030976 cpu:               8.0 elap:               0.2
 (Enter /home/hhratchian/gaussian/gdv-20250101-j30+/gdv/l701.exe)
 ... and contract with generalized density number  0.
 Compute integral first derivatives.
 Leave Link  701 at Sat Aug  2 15:31:31 2025, MaxMem= 12348030976 cpu:               4.7 elap:               0.1
 (Enter /home/hhratchian/gaussian/gdv-20250101-j30+/gdv/l702.exe)
 L702 exits ... SP integral derivatives will be done elsewhere.
 Leave Link  702 at Sat Aug  2 15:31:31 2025, MaxMem= 12348030976 cpu:               1.3 elap:               0.1
 (Enter /home/hhratchian/gaussian/gdv-20250101-j30+/gdv/l703.exe)
 Integral derivatives from FoFJK, PRISM(SPDF).
 Compute integral first derivatives, UseDBF=F ICtDFT=           0.
 Calling FoFJK, ICntrl=      2127 FMM=F ISym2X=1 I1Cent= 0 IOpClX= 0 NMat=1 NMatS=1 NMatT=0.
 FoFJK:  IHMeth= 1 ICntrl=    2127 DoSepK=T KAlg= 0 I1Cent=           0 FoldK=F
 IRaf=         1 NMat=       1 IRICut=       1 DoRegI=T DoRafI=F ISym2E= 1 IDoP0=0 IntGTp=1.
 FoFCou: FMM=F IPFlag=           0 FMFlag=      100000 FMFlg1=         800
         NFxFlg=           0 DoJE=F BraDBF=F KetDBF=F FulRan=T
         wScrn=  0.000000 ICntrl=      2527 IOpCl=  0 I1Cent=           0 NGrid=           0
         NMat0=    1 NMatS0=      1 NMatT0=    0 NMatD0=    1 NMtDS0=    0 NMtDT0=    0
 Petite list used in FoFCou.
 Leave Link  703 at Sat Aug  2 15:31:31 2025, MaxMem= 12348030976 cpu:               4.9 elap:               0.2
 (Enter /home/hhratchian/gaussian/gdv-20250101-j30+/gdv/l716.exe)
 Dipole        =-3.49910315D-17 0.00000000D+00-6.52548880D-01
 ***** Axes restored to original set *****
 -------------------------------------------------------------------
 Center     Atomic                   Forces (Hartrees/Bohr)
 Number     Number              X              Y              Z
 -------------------------------------------------------------------
      1        8          -0.000000000   -0.000000000   -0.041805142
      2        1           0.013177614    0.000000000    0.020902571
      3        1          -0.013177614    0.000000000    0.020902571
 -------------------------------------------------------------------
 Cartesian Forces:  Max     0.041805142 RMS     0.018162244
 Leave Link  716 at Sat Aug  2 15:31:31 2025, MaxMem= 12348030976 cpu:               0.1 elap:               0.0
 (Enter /home/hhratchian/gaussian/gdv-20250101-j30+/gdv/l103.exe)

 GradGradGradGradGradGradGradGradGradGradGradGradGradGradGradGradGradGrad
 Berny optimization.
 Using GEDIIS/GDIIS optimizer.
 FormGI is forming the generalized inverse of G from B-inverse, IUseBI=4.
 NTrRot=    -1 NTRed=     3 NAtoms=     3 NSkip=     0 NRank=     3 IsLin=F EigSml=7.3399D-01
 Internal  Forces:  Max     0.023431494 RMS     0.020943144
 Search for a local minimum.
 Step number   2 out of a maximum of   20
 All quantities printed in internal units (Hartrees-Bohrs-Radians)
 RMS Force = .20943D-01 SwitMx=.10000D-02 MixMth= 1
 Mixed Optimization -- RFO/linear search
 Update second derivatives using D2CorX and points    1    2
 DE= -2.95D-02 DEPred=-3.03D-02 R= 9.75D-01
 TightC=F SS=  1.41D+00  RLast= 3.00D-01 DXNew= 5.0454D-01 9.0000D-01
 Trust test= 9.75D-01 RLast= 3.00D-01 DXMaxT set to 5.05D-01
 The second derivative matrix:
                          R1        R2        A1
           R1           0.66790
           R2          -0.00735   0.66790
           A1          -0.00158  -0.00158   0.16160
 ITU=  1  0
 Use linear search instead of GDIIS.
     Eigenvalues ---    0.16159   0.66056   0.67525
 RFO step:  Lambda=-7.00159604D-04 EMin= 1.61590472D-01
 Quartic linear search produced a step of  0.31876.
 GrdOpt: GIC=T ITstSp=  0 NP=   2 DidLin=T DidDIS=F IDoGRo=0 IDoRot=0
         ISwap=1 XLin= 0.319 DXMaxT= 0.505
 Iteration  1 RMS(Cart)=  0.03704818 RMS(Int)=  0.00327919
 Iteration  2 RMS(Cart)=  0.00207812 RMS(Int)=  0.00000334
 Iteration  3 RMS(Cart)=  0.00000158 RMS(Int)=  0.00000000
 Iteration  4 RMS(Cart)=  0.00000000 RMS(Int)=  0.00000000
 ClnCor:  largest displacement from symmetrization is 4.97D-16 for atom     3.
 Variable       Old X    -DE/DX   Delta X   Delta X   Delta X     New X
                                 (Linear)    (Quad)   (Total)
    R1        1.88128   0.02343   0.05097  -0.00925   0.04172   1.92300
    R2        1.88128   0.02343   0.05097  -0.00925   0.04172   1.92300
    A1        1.77108  -0.01476  -0.06285  -0.06033  -0.12317   1.64791
         Item               Value     Threshold  Converged?
 Maximum Force            0.023431     0.000450     NO 
 RMS     Force            0.020943     0.000300     NO 
 Maximum Displacement     0.077156     0.001800     NO 
 RMS     Displacement     0.065970     0.001200     NO 
 Predicted change in Energy=-1.380985D-03
 Lowest energy point so far.  Saving SCF results.
 GradGradGradGradGradGradGradGradGradGradGradGradGradGradGradGradGradGrad

 Leave Link  103 at Sat Aug  2 15:31:31 2025, MaxMem= 12348030976 cpu:               1.3 elap:               0.0
 (Enter /home/hhratchian/gaussian/gdv-20250101-j30+/gdv/l202.exe)
                          Input orientation:                          
 ---------------------------------------------------------------------
 Center     Atomic      Atomic             Coordinates (Angstroms)
 Number     Number       Type             X           Y           Z
 ---------------------------------------------------------------------
      1          8           0       -0.000000    0.000000   -0.124669
      2          1           0        0.746761    0.000000    0.566618
      3          1           0       -0.746761   -0.000000    0.566618
 ---------------------------------------------------------------------
                    Distance matrix (angstroms):
                    1          2          3
     1  O    0.000000
     2  H    1.017610   0.000000
     3  H    1.017610   1.493523   0.000000
 Stoichiometry    H2O
 Framework group  C2V[C2(O),SGV(H2)]
 Deg. of freedom     2
 Full point group                 C2V     NOp   4
 RotChk:  IX=0 Diff= 1.30D-15
 Largest Abelian subgroup         C2V     NOp   4
 Largest concise Abelian subgroup C2      NOp   2
                         Standard orientation:                         
 ---------------------------------------------------------------------
 Center     Atomic      Atomic             Coordinates (Angstroms)
 Number     Number       Type             X           Y           Z
 ---------------------------------------------------------------------
      1          8           0       -0.000000    0.000000    0.138257
      2          1           0        0.000000    0.746761   -0.553030
      3          1           0       -0.000000   -0.746761   -0.553030
 ---------------------------------------------------------------------
 Rotational constants (GHZ):         590.7866604         449.6125302         255.3107380
 Leave Link  202 at Sat Aug  2 15:31:31 2025, MaxMem= 12348030976 cpu:               2.7 elap:               0.1
 (Enter /home/hhratchian/gaussian/gdv-20250101-j30+/gdv/local/l301.exe)
 Basis read from rwf:  (5D, 7F)
 No pseudopotential information found on rwf file.
 There are     4 symmetry adapted cartesian basis functions of A1  symmetry.
 There are     0 symmetry adapted cartesian basis functions of A2  symmetry.
 There are     1 symmetry adapted cartesian basis functions of B1  symmetry.
 There are     2 symmetry adapted cartesian basis functions of B2  symmetry.
 There are     4 symmetry adapted basis functions of A1  symmetry.
 There are     0 symmetry adapted basis functions of A2  symmetry.
 There are     1 symmetry adapted basis functions of B1  symmetry.
 There are     2 symmetry adapted basis functions of B2  symmetry.
     7 basis functions,    21 primitive gaussians,     7 cartesian basis functions
     5 alpha electrons        5 beta electrons
       nuclear repulsion energy         8.6746290045 Hartrees.
 IExCor=   2004019 DFT=T Ex+Corr=CAM-B3LYP ScaHFX=  1.000000
 ScaDFX=  1.000000  1.000000  1.000000  0.810000  1.000000  0.000000
 ScaDFX=  0.000000  0.000000  0.000000  0.000000  0.000000  0.000000
 Grid=SuperFine IRanWt=     -1 IRanGd=            0 ICorTp=0 IEDCtl=  2004
 HFx  wShort=  0.000000 wLong=  0.330000 cFull=  0.190000 cShort=  0.000000 cLong=  0.460000
 DFx  wShort=  0.330000 wLong=  0.000000 cFull=  0.350000 cShort=  0.460000 cLong=  0.000000
 NAtoms=    3 NActive=    3 NUniq=    2 SFac= 2.25D+00 NAtFMM=   60 NAOKFM=F Big=F
 Integral buffers will be    131072 words long.
 Raffenetti 2 integral format.
 Two-electron integral symmetry is turned on.
 No density basis found on file    724.
 Leave Link  301 at Sat Aug  2 15:31:31 2025, MaxMem= 12348030976 cpu:               1.3 elap:               0.1
 (Enter /home/hhratchian/gaussian/gdv-20250101-j30+/gdv/l302.exe)
 NPDir=0 NMtPBC=     1 NCelOv=     1 NCel=       1 NClECP=     1 NCelD=      1
         NCelK=      1 NCelE2=     1 NClLst=     1 CellRange=     0.0.
 One-electron integrals computed using PRISM.
 One-electron integral symmetry used in STVInt
 NBasis=     7 RedAO= T EigKep=  3.82D-01  NBF=     4     0     1     2
 NBsUse=     7 1.00D-06 EigRej= -1.00D+00 NBFU=     4     0     1     2
 Precomputing XC quadrature grid using
 IXCGrd=   9 Grid=SuperFine IRanWt=          -1 IRanGd=           0 AccXCQ= 0.00D+00.
 Generated NRdTot=       0 NPtTot=      186312 NUsed=           0 NTot=          64
 NSgBfM=     7     7     7     7     7 MxSgAt=     3 MxSgA2=     3 SizInc=   0.000
 NMBTot=     1269 MaxBatPerAtom=      123 MaxMicBPerAtom=      431 NBfPt=             1126573.
 Leave Link  302 at Sat Aug  2 15:31:31 2025, MaxMem= 12348030976 cpu:               3.9 elap:               0.1
 (Enter /home/hhratchian/gaussian/gdv-20250101-j30+/gdv/l303.exe)
 DipDrv:  MaxL=1.
 Leave Link  303 at Sat Aug  2 15:31:31 2025, MaxMem= 12348030976 cpu:               0.5 elap:               0.0
 (Enter /home/hhratchian/gaussian/gdv-20250101-j30+/gdv/l401.exe)
 Initial guess from the checkpoint file:  "H2O_CAMB3LYP_STO3G.chk"
 B after Tr=     0.000000   -0.000000    0.000000
         Rot=    1.000000   -0.000000    0.000000   -0.000000 Ang=   0.00 deg.
 AO Guess basis will be translated and rotated to current coordinates.
 JPrj=2 DoOrth=T DoCkMO=T.
 Initial guess orbital symmetries:
       Occupied  (A1) (A1) (B2) (A1) (B1)
       Virtual   (A1) (B2)
 The electronic state of the initial guess is 1-A1.
 Generating alternative initial guess.
 ExpMin= 1.69D-01 ExpMax= 1.31D+02 ExpMxC= 1.31D+02 IAcc=3 Grid=SuperFine AccDes= 0.00D+00
 Harris functional with IExCor=10009 and Grid=SuperFine diagonalized for initial guess.
 HarFok:  IExCor=   10009 AccDes= 0.00D+00 Grid=SuperFine IDoV= 1 UseB2=F ITyADJ=14 ICtDFT=  3500011
 FoFCou: FMM=F IPFlag=           0 FMFlag=      100000 FMFlg1=           0
         NFxFlg=           0 DoJE=T BraDBF=F KetDBF=T FulRan=T
         wScrn=  0.000000 ICntrl=       500 IOpCl=  0 I1Cent=   200000004 NGrid=           0
         NMat0=    1 NMatS0=      1 NMatT0=    0 NMatD0=    1 NMtDS0=    0 NMtDT0=    0
 Petite list used in FoFCou.
 Harris En= -75.3092434951898    
 Leave Link  401 at Sat Aug  2 15:31:32 2025, MaxMem= 12348030976 cpu:               4.3 elap:               0.1
 (Enter /home/hhratchian/gaussian/gdv-20250101-j30+/gdv/local/l502.exe)
 Keep R1 ints in memory in symmetry-blocked form, NReq=47924202.
 FoFCou: FMM=F IPFlag=           0 FMFlag=           0 FMFlg1=           0
         NFxFlg=           0 DoJE=F BraDBF=F KetDBF=F FulRan=T
         wScrn=  0.000000 ICntrl=       600 IOpCl=  0 I1Cent=           0 NGrid=           0
         NMat0=    1 NMatS0=     28 NMatT0=    0 NMatD0=    1 NMtDS0=    0 NMtDT0=    0
 Petite list used in FoFCou.
[...]
 O,0,0.,0.,-0.1123117427
 H,0,0.7685906677,0.,0.5604398714
 H,0,-0.7685906677,0.,0.5604398714
 
 Recover connectivity data from disk.
 Reading GIC definitions from chk.
 Reading GIC derivative info from chk.
 ITRead=  0  0  0
 MicOpt= -1 -1 -1
                           ----------------------------
                           !    Current Parameters    !
                           ! (Angstroms and Degrees)  !
 --------------------------                            --------------------------
 ! Name  Definition              Value                                          !
 --------------------------------------------------------------------------------
 ! R1    R(1,2)                  1.0214                                         !
 ! R2    R(1,3)                  1.0214                                         !
 ! A1    A(2,1,3)               97.6083                                         !
 --------------------------------------------------------------------------------
 NAtoms=      3 NQM=        3 NQMF=       0 NMMI=      0 NMMIF=      0
                NMic=       0 NMicF=      0.
                    Isotopes and Nuclear Properties:
 (Nuclear quadrupole moments (NQMom) in fm**2, nuclear magnetic moments (NMagM)
  in nuclear magnetons)

  Atom         1           2           3
 IAtWgt=          16           1           1
 AtmWgt=  15.9949146   1.0078250   1.0078250
 NucSpn=           0           1           1
 AtZEff=    5.600000    1.000000    1.000000
 NQMom=    0.0000000   0.0000000   0.0000000
 NMagM=    0.0000000   2.7928460   2.7928460
 AtZNuc=   8.0000000   1.0000000   1.0000000
 Leave Link  101 at Sat Aug  2 15:31:38 2025, MaxMem= 12348030976 cpu:               2.7 elap:               0.3
 (Enter /home/hhratchian/gaussian/gdv-20250101-j30+/gdv/l202.exe)
                          Input orientation:                          
 ---------------------------------------------------------------------
 Center     Atomic      Atomic             Coordinates (Angstroms)
 Number     Number       Type             X           Y           Z
 ---------------------------------------------------------------------
      1          8           0        0.000000    0.000000   -0.112312
      2          1           0        0.768591    0.000000    0.560440
      3          1           0       -0.768591   -0.000000    0.560440
 ---------------------------------------------------------------------
                    Distance matrix (angstroms):
                    1          2          3
     1  O    0.000000
     2  H    1.021433   0.000000
     3  H    1.021433   1.537181   0.000000
 Stoichiometry    H2O
 Framework group  C2V[C2(O),SGV(H2)]
 Deg. of freedom     2
 Full point group                 C2V     NOp   4
 RotChk:  IX=0 Diff= 5.10D-16
 Largest Abelian subgroup         C2V     NOp   4
 Largest concise Abelian subgroup C2      NOp   2
                         Standard orientation:                         
 ---------------------------------------------------------------------
 Center     Atomic      Atomic             Coordinates (Angstroms)
 Number     Number       Type             X           Y           Z
 ---------------------------------------------------------------------
      1          8           0        0.000000   -0.000000    0.134550
      2          1           0       -0.000000    0.768591   -0.538201
      3          1           0       -0.000000   -0.768591   -0.538201
 ---------------------------------------------------------------------
 Rotational constants (GHZ):         623.7893669         424.4356423         252.5778705
 Leave Link  202 at Sat Aug  2 15:31:39 2025, MaxMem= 12348030976 cpu:               1.4 elap:               0.0
 (Enter /home/hhratchian/gaussian/gdv-20250101-j30+/gdv/local/l301.exe)
 Basis read from chk: "H2O_CAMB3LYP_STO3G-stab.chk" (5D, 7F)
 No pseudopotential information found on chk file.
 There are     4 symmetry adapted cartesian basis functions of A1  symmetry.
 There are     0 symmetry adapted cartesian basis functions of A2  symmetry.
 There are     1 symmetry adapted cartesian basis functions of B1  symmetry.
 There are     2 symmetry adapted cartesian basis functions of B2  symmetry.
 There are     4 symmetry adapted basis functions of A1  symmetry.
 There are     0 symmetry adapted basis functions of A2  symmetry.
 There are     1 symmetry adapted basis functions of B1  symmetry.
 There are     2 symmetry adapted basis functions of B2  symmetry.
     7 basis functions,    21 primitive gaussians,     7 cartesian basis functions
     5 alpha electrons        5 beta electrons
       nuclear repulsion energy         8.6334212946 Hartrees.
 IExCor=   2004019 DFT=T Ex+Corr=CAM-B3LYP ScaHFX=  1.000000
 ScaDFX=  1.000000  1.000000  1.000000  0.810000  1.000000  0.000000
 ScaDFX=  0.000000  0.000000  0.000000  0.000000  0.000000  0.000000
 Grid=UltraFine IRanWt=     -1 IRanGd=            0 ICorTp=0 IEDCtl=  2004
 HFx  wShort=  0.000000 wLong=  0.330000 cFull=  0.190000 cShort=  0.000000 cLong=  0.460000
 DFx  wShort=  0.330000 wLong=  0.000000 cFull=  0.350000 cShort=  0.460000 cLong=  0.000000
 NAtoms=    3 NActive=    3 NUniq=    2 SFac= 2.25D+00 NAtFMM=   60 NAOKFM=F Big=F
 Integral buffers will be    131072 words long.
 Raffenetti 2 integral format.
 Two-electron integral symmetry is turned on.
 No density basis found on file 200724.
 Leave Link  301 at Sat Aug  2 15:31:39 2025, MaxMem= 12348030976 cpu:               0.8 elap:               0.1
 (Enter /home/hhratchian/gaussian/gdv-20250101-j30+/gdv/l302.exe)
 NPDir=0 NMtPBC=     1 NCelOv=     1 NCel=       1 NClECP=     1 NCelD=      1
         NCelK=      1 NCelE2=     1 NClLst=     1 CellRange=     0.0.
 One-electron integrals computed using PRISM.
 One-electron integral symmetry used in STVInt
 NBasis=     7 RedAO= T EigKep=  3.84D-01  NBF=     4     0     1     2
 NBsUse=     7 1.00D-06 EigRej= -1.00D+00 NBFU=     4     0     1     2
 Precomputing XC quadrature grid using
 IXCGrd=   9 Grid=UltraFine IRanWt=          -1 IRanGd=           0 AccXCQ= 0.00D+00.
 Generated NRdTot=       0 NPtTot=       68110 NUsed=           0 NTot=          64
 NSgBfM=     7     7     7     7     7 MxSgAt=     3 MxSgA2=     3 SizInc=   0.000
 NMBTot=      618 MaxBatPerAtom=       81 MaxMicBPerAtom=      212 NBfPt=              414389.
 Leave Link  302 at Sat Aug  2 15:31:39 2025, MaxMem= 12348030976 cpu:               4.7 elap:               0.1
 (Enter /home/hhratchian/gaussian/gdv-20250101-j30+/gdv/l303.exe)
 DipDrv:  MaxL=1.
 Leave Link  303 at Sat Aug  2 15:31:39 2025, MaxMem= 12348030976 cpu:               3.0 elap:               0.1
 (Enter /home/hhratchian/gaussian/gdv-20250101-j30+/gdv/l401.exe)
 Initial guess from the checkpoint file:  "H2O_CAMB3LYP_STO3G-stab.chk"
 B after Tr=     0.000000    0.000000   -0.000000
         Rot=    1.000000   -0.000000    0.000000   -0.000000 Ang=   0.00 deg.
 AO Guess basis will be translated and rotated to current coordinates.
 JPrj=2 DoOrth=T DoCkMO=T.
 Initial guess orbital symmetries:
       Occupied  (A1) (A1) (B2) (A1) (B1)
       Virtual   (A1) (B2)
 The electronic state of the initial guess is 1-A1.
 Leave Link  401 at Sat Aug  2 15:31:39 2025, MaxMem= 12348030976 cpu:               1.5 elap:               0.1
 (Enter /home/hhratchian/gaussian/gdv-20250101-j30+/gdv/local/l502.exe)
 Keep R1 ints in memory in symmetry-blocked form, NReq=47702778.
 FoFCou: FMM=F IPFlag=           0 FMFlag=           0 FMFlg1=           0
         NFxFlg=           0 DoJE=F BraDBF=F KetDBF=F FulRan=T
         wScrn=  0.000000 ICntrl=       600 IOpCl=  0 I1Cent=           0 NGrid=           0
         NMat0=    1 NMatS0=     28 NMatT0=    0 NMatD0=    1 NMtDS0=    0 NMtDT0=    0
 Petite list used in FoFCou.
 Closed shell SCF:
 Using DIIS extrapolation, IDIIS=    10.
 NGot= 12348030976 LenX= 12348027978 LenY= 12348027096
 Requested convergence on RMS density matrix=1.00D-08 within 128 cycles.
 Requested convergence on MAX density matrix=1.00D-06.
 Requested convergence on             energy=1.00D-06.
 Level shift goal  0.100 maximum shift  0.100.
 No special actions if energy rises.
 Dynamic level shift is on during FON iterations.
 
  Hrant - CycOpn.
 

 Cycle   1  Pass 1  IDiag  1:
 E= -75.2885985838191    
 DIIS: error= 7.00D-09 at cycle   1 NSaved=   1.
 NSaved= 1 IEnMin= 1 EnMin= -75.2885985838191     IErMin= 1 ErrMin= 7.00D-09
 ErrMax= 7.00D-09  0.00D+00 EMaxC= 1.00D+00 BMatC= 3.18D-16 BMatP= 3.18D-16
 Rises=F IDIUse=1 WtCom= 1.00D+00 WtEn= 0.00D+00
 Coeff-Com:  0.100D+01
 Coeff:      0.100D+01
 Gap=     0.593 Goal=     0.100 Shift=    0.000
 RMSDP=4.53D-09 MaxDP=1.37D-08              OVMax= 0.00D+00

 SCF Done:  E(RCAM-B3LYP) =  -75.2885985838     A.U. after    1 cycles
            NFock=  1  Conv=0.45D-08     -V/T= 2.0109
 KE=          74.474487 PE=        -195.809558 EE=          37.413051
 Leave Link  502 at Sat Aug  2 15:31:39 2025, MaxMem= 12348030976 cpu:               6.9 elap:               0.2
 (Enter /home/hhratchian/gaussian/gdv-20250101-j30+/gdv/l601.exe)
 Copying SCF densities to generalized density rwf, IOpCl= 0 IROHF=0.
 
 **********************************************************************
 
               Population analysis using the SCF Density.
 
 **********************************************************************
 
 Orbital symmetries:
       Occupied  (A1) (A1) (B2) (A1) (B1)
       Virtual   (A1) (B2)
 The electronic state is 1-A1.
 Alpha  occ. eigenvalues --      -18.91924      -0.99093      -0.47221      -0.31879      -0.21557
 Alpha virt. eigenvalues --        0.37763       0.46433
          Condensed to atoms (all electrons):
               1          2          3
     1  O    7.831934   0.237050   0.237050
     2  H    0.237050   0.648362  -0.038429
     3  H    0.237050  -0.038429   0.648362
 Mulliken charges:
               1
     1  O   -0.306034
     2  H    0.153017
     3  H    0.153017
 Sum of Mulliken charges=  -0.00000
 Mulliken charges with hydrogens summed into heavy atoms:
               1
     1  O   -0.000000
 Electronic spatial extent (au):  <R**2>=             18.7012
 Charge=             -0.0000 electrons
 Dipole moment (field-independent basis, Debye):
    X=             -0.0000    Y=             -0.0000    Z=             -1.6339  Tot=              1.6339
 Quadrupole moment (field-independent basis, Debye-Ang):
   XX=             -6.1558   YY=             -4.5562   ZZ=             -5.2886
   XY=              0.0000   XZ=              0.0000   YZ=             -0.0000
 Traceless Quadrupole moment (field-independent basis, Debye-Ang):
   XX=             -0.8223   YY=              0.7773   ZZ=              0.0449
   XY=              0.0000   XZ=              0.0000   YZ=             -0.0000
 Octapole moment (field-independent basis, Debye-Ang**2):
  XXX=              0.0000  YYY=              0.0000  ZZZ=             -0.0987  XYY=             -0.0000
  XXY=              0.0000  XXZ=              0.0481  XZZ=              0.0000  YZZ=             -0.0000
  YYZ=             -0.5140  XYZ=             -0.0000
 Hexadecapole moment (field-independent basis, Debye-Ang**3):
 XXXX=             -3.2988 YYYY=             -6.9978 ZZZZ=             -5.5232 XXXY=             -0.0000
 XXXZ=             -0.0000 YYYX=             -0.0000 YYYZ=             -0.0000 ZZZX=             -0.0000
 ZZZY=             -0.0000 XXYY=             -1.8573 XXZZ=             -1.5241 YYZZ=             -1.8041
 XXYZ=             -0.0000 YYXZ=              0.0000 ZZXY=             -0.0000
 N-N=           8.633421 E-N=        -195.809557  KE=          74.474487
 Symmetry A1   KE=          66.466663
 Symmetry A2   KE=           0.000000
 Symmetry B1   KE=           5.057462
 Symmetry B2   KE=           2.950362
 No NMR shielding tensors so no spin-rotation constants.
 Leave Link  601 at Sat Aug  2 15:31:39 2025, MaxMem= 12348030976 cpu:               5.3 elap:               0.1
 (Enter /home/hhratchian/gaussian/gdv-20250101-j30+/gdv/l801.exe)
 DoSCS=F DFT=T ScalE2(SS,OS)=  1.000000  1.000000
 Range of M.O.s used for correlation:     1     7
 NBasis=     7 NAE=     5 NBE=     5 NFC=     0 NFV=     0
 NROrb=      7 NOA=     5 NOB=     5 NVA=     2 NVB=     2
 Leave Link  801 at Sat Aug  2 15:31:39 2025, MaxMem= 12348030976 cpu:               1.3 elap:               0.1
 (Enter /home/hhratchian/gaussian/gdv-20250101-j30+/gdv/l914.exe)
 RHF ground state
 Doing stability rather than CIS.
 DoSCS=F DFT=T ScalE2(SS,OS)=  1.000000  1.000000
   ScalD2(USS,UOS,TSS,TOS,w)=  1.000000  1.000000  1.000000  1.000000  1.000000
 Keep R1 and R2 ints in memory in symmetry-blocked form, NReq=53509821.
 FoFCou: FMM=F IPFlag=           0 FMFlag=           0 FMFlg1=           0
         NFxFlg=           0 DoJE=F BraDBF=F KetDBF=F FulRan=T
         wScrn=  0.000000 ICntrl=       600 IOpCl=  0 I1Cent=           0 NGrid=           0
         NMat0=    1 NMatS0=     28 NMatT0=    0 NMatD0=    1 NMtDS0=    0 NMtDT0=    0
 Petite list used in FoFCou.
 MDV= 12348030976 DFT=T IDoStb=1 Mixed=T DoRPA=F DoScal=F NonHer=F
 Making orbital integer symmetry assigments:
 Orbital symmetries:
       Occupied  (A1) (A1) (B2) (A1) (B1)
       Virtual   (A1) (B2)
 The electronic state is 1-A1.
    20 initial guesses have been made.
 Convergence on wavefunction:    0.001000000000000
 Davidson Disk Diagonalization:  ConvIn= 1.00D-03 SkipCon=T Conv= 1.00D-03.
 Max sub-space:    48 initial roots:    24 roots to seek:     1 dimension of matrix:           20
 *** WARNING: Number of orthogonal guesses is           20
 Iteration     1 Dimension    20 NMult     0 NNew     20
 CISAX will form    20 AO SS matrices at one time.
 NMat=    20 NSing=    10 JSym2X=-1.
 New state      1 was old state      2
 Excitation Energies [eV] at current iteration:
 Root      1 :     7.803662123234745
 Root      2 :     9.383772384617691
 Root      3 :    10.142961145607636
 Root      4 :    10.655643969881595
 Root      5 :    11.511386573886858
 Root      6 :    12.583353515389014
 Root      7 :    14.896278934802909
 Root      8 :    15.050067062734941
 Root      9 :    15.060478501080365
 Root     10 :    17.503247799157929
 Root     11 :    23.203541651860068
 Root     12 :    27.899709066645414
 Root     13 :    29.280207922216228
 Root     14 :    30.864770564576020
 Root     15 :    37.043085382659996
 Root     16 :    44.416629843225252
 Root     17 :   515.946365612159752
 Root     18 :   518.193024439473675
 Root     19 :   519.059594766583132
 Root     20 :   520.250811302998613
 Convergence achieved for final wavefunctions.
 1PDM for each excited state written to RWF  633
 Ground to excited state transition densities written to RWF  633

 ***********************************************************************
 Stability analysis using <AA,BB:AA,BB> singles matrix:
 ***********************************************************************

 Eigenvectors of the stability matrix:
 
 Eigenvector   1:      Triplet-B1   Eigenvalue= 0.2867793  <S**2>=2.000
       5 ->  6         0.70711
 
 Eigenvector   2:      Triplet-A1   Eigenvalue= 0.3448473  <S**2>=2.000
       3 ->  7         0.24830
       4 ->  6         0.65611
 
 Eigenvector   3:      Triplet-A2   Eigenvalue= 0.3727470  <S**2>=2.000
       5 ->  7         0.70711
 
 Eigenvector   4:      Triplet-B2   Eigenvalue= 0.3915877  <S**2>=2.000
       3 ->  6         0.40579
       4 ->  7         0.57728
 
 Eigenvector   5:      Singlet-B1   Eigenvalue= 0.4230357  <S**2>=0.000
       5 ->  6         0.70711
 
 Eigenvector   6:      Singlet-A2   Eigenvalue= 0.4624297  <S**2>=0.000
       5 ->  7         0.70711
 The wavefunction is stable under the perturbations considered.
 Leave Link  914 at Sat Aug  2 15:31:40 2025, MaxMem= 12348030976 cpu:               5.1 elap:               0.2
 (Enter /home/hhratchian/gaussian/gdv-20250101-j30+/gdv/l508.exe)
 The wavefunction is already stable.
 Leave Link  508 at Sat Aug  2 15:31:40 2025, MaxMem= 12348030976 cpu:               0.1 elap:               0.0
 (Enter /home/hhratchian/gaussian/gdv-20250101-j30+/gdv/l601.exe)
 Copying SCF densities to generalized density rwf, IOpCl= 0 IROHF=0.
 
 **********************************************************************
 
               Population analysis using the SCF Density.
 
 **********************************************************************
 
 Orbital symmetries:
       Occupied  (A1) (A1) (B2) (A1) (B1)
       Virtual   (A1) (B2)
 The electronic state is 1-A1.
 Alpha  occ. eigenvalues --      -18.91924      -0.99093      -0.47221      -0.31879      -0.21557
 Alpha virt. eigenvalues --        0.37763       0.46433
          Condensed to atoms (all electrons):
               1          2          3
     1  O    7.831934   0.237050   0.237050
     2  H    0.237050   0.648362  -0.038429
     3  H    0.237050  -0.038429   0.648362
 Mulliken charges:
               1
     1  O   -0.306034
     2  H    0.153017
     3  H    0.153017
 Sum of Mulliken charges=  -0.00000
 Mulliken charges with hydrogens summed into heavy atoms:
               1
     1  O   -0.000000
 Electronic spatial extent (au):  <R**2>=             18.7012
 Charge=             -0.0000 electrons
 Dipole moment (field-independent basis, Debye):
    X=             -0.0000    Y=             -0.0000    Z=             -1.6339  Tot=              1.6339
 Quadrupole moment (field-independent basis, Debye-Ang):
   XX=             -6.1558   YY=             -4.5562   ZZ=             -5.2886
   XY=              0.0000   XZ=              0.0000   YZ=             -0.0000
 Traceless Quadrupole moment (field-independent basis, Debye-Ang):
   XX=             -0.8223   YY=              0.7773   ZZ=              0.0449
   XY=              0.0000   XZ=              0.0000   YZ=             -0.0000
 Octapole moment (field-independent basis, Debye-Ang**2):
  XXX=              0.0000  YYY=              0.0000  ZZZ=             -0.0987  XYY=             -0.0000
  XXY=              0.0000  XXZ=              0.0481  XZZ=              0.0000  YZZ=             -0.0000
  YYZ=             -0.5140  XYZ=             -0.0000
 Hexadecapole moment (field-independent basis, Debye-Ang**3):
 XXXX=             -3.2988 YYYY=             -6.9978 ZZZZ=             -5.5232 XXXY=             -0.0000
 XXXZ=             -0.0000 YYYX=             -0.0000 YYYZ=             -0.0000 ZZZX=             -0.0000
 ZZZY=             -0.0000 XXYY=             -1.8573 XXZZ=             -1.5241 YYZZ=             -1.8041
 XXYZ=             -0.0000 YYXZ=              0.0000 ZZXY=             -0.0000
 N-N=           8.633421 E-N=        -195.809557  KE=          74.474487
 Symmetry A1   KE=          66.466663
 Symmetry A2   KE=           0.000000
 Symmetry B1   KE=           5.057462
 Symmetry B2   KE=           2.950362
 No NMR shielding tensors so no spin-rotation constants.
 Leave Link  601 at Sat Aug  2 15:31:40 2025, MaxMem= 12348030976 cpu:               4.0 elap:               0.1
 (Enter /home/hhratchian/gaussian/gdv-20250101-j30+/gdv/local/l9999.exe)
 Unable to Open any file for archive entry.
 1\1\GINC-HMNODE006\Stability\RCAM-B3LYP\Gen\H2O1\AABOUTAKA\02-Aug-2025
 \0\\#P CAM-B3LYP chkbasis Geom=AllCheck Guess=Read Stable=Opt SCF=(fer
 mi,novaracc)\\Initial Stability Check for H2O\\0,1\O,0,0.,0.,-0.112311
 7427\H,0,0.7685906677,0.,0.5604398714\H,0,-0.7685906677,0.,0.560439871
 4\\Version=ES64L-GDVRevJ.30+\State=1-A1\HF=-75.2885986\RMSD=4.533e-09\
 Dipole=0.,0.,0.6428115\Quadrupole=0.5779385,-0.6113361,0.0333976,0.,0.
 ,0.\PG=C02V [C2(O1),SGV(H2)]\\@
 The archive entry for this job was punched.


 YOU CAN LEAD A BOY TO COLLEGE....
 BUT YOU CANNOT MAKE HIM THINK....
           ELBERT HUBBARD
 Job cpu time:       0 days  0 hours  0 minutes 40.2 seconds.
 Elapsed time:       0 days  0 hours  0 minutes  1.5 seconds.
 File lengths (MBytes):  RWF=     30 Int=      0 D2E=      0 Chk=     74 Scr=      2
 Normal termination of Gaussian DV at Sat Aug  2 15:31:40 2025.
