 Set GAUSS_MDEF to "92GB".
 Set GAUSS_PDEF to "56".
 Entering Gaussian System, Link 0=gdv
 Initial command:
 /home/hhratchian/gaussian/gdv-20250101-j30+/gdv/local/l1.exe "/scratch/aaboutaka/1562791/Gau-23751.inp" -scrdir="/scratch/aaboutaka/1562791/"
 Default is to use a total of  56 processors:
                               56 via shared-memory
                                1 via Linda
 Entering Link 1 = /home/hhratchian/gaussian/gdv-20250101-j30+/gdv/local/l1.exe PID=     23752.
  
 Copyright (c) 1988-2024, Gaussian, Inc.  All Rights Reserved.
  
 This is the private, development version of
 the Gaussian(R) DV system of programs. It is based on
 the Gaussian(R) 16 system (copyright 2016, Gaussian, Inc.),
 the Gaussian(R) 09 system (copyright 2009, Gaussian, Inc.),
 the Gaussian(R) 03 system (copyright 2003, Gaussian, Inc.),
 the Gaussian(R) 98 system (copyright 1998, Gaussian, Inc.),
 the Gaussian(R) 94 system (copyright 1995, Gaussian, Inc.),
 the Gaussian 92(TM) system (copyright 1992, Gaussian, Inc.),
 the Gaussian 90(TM) system (copyright 1990, Gaussian, Inc.),
 the Gaussian 88(TM) system (copyright 1988, Gaussian, Inc.),
 the Gaussian 86(TM) system (copyright 1986, Carnegie Mellon
 University), and the Gaussian 82(TM) system (copyright 1983,
 Carnegie Mellon University). Gaussian is a federally registered
 trademark of Gaussian, Inc.
  
 This software contains proprietary and confidential information,
 including trade secrets, belonging to Gaussian, Inc.
  
 This software is provided under written license and may be
 used, copied, transmitted, or stored only in accord with that
 written license.
  
 The following legend is applicable only to US Government
 contracts under FAR:
  
                    RESTRICTED RIGHTS LEGEND
  
 Use, reproduction and disclosure by the US Government is
 subject to restrictions as set forth in subparagraphs (a)
 and (c) of the Commercial Computer Software - Restricted
 Rights clause in FAR 52.227-19.
  
 Gaussian, Inc.
 340 Quinnipiac St., Bldg. 40, Wallingford CT 06492
  
  
 ---------------------------------------------------------------
 Warning -- This program may not be used in any manner that
 competes with the business of Gaussian, Inc. or will provide
 assistance to any competitor of Gaussian, Inc.  The licensee
 of this program is prohibited from giving any competitor of
 Gaussian, Inc. access to this program.  By using this program,
 the user acknowledges that Gaussian, Inc. is engaged in the
 business of creating and licensing software in the field of
 computational chemistry and represents and warrants to the
 licensee that it is not a competitor of Gaussian, Inc. and that
 it will not use this program in any manner prohibited above.
 ---------------------------------------------------------------
  

 Cite this work as:
 Gaussian Development Version, Revision J.30+,
 M. J. Frisch, G. W. Trucks, G. Scalmani, J. R. Cheeseman, X. Li, 
 J. Bloino, B. G. Janesko, A. V. Marenich, J. Zheng, F. Lipparini, 
 A. Jenkins, A. Liu, H. Liu, H. B. Schlegel, G. E. Scuseria, 
 M. A. Robb, V. Barone, G. A. Petersson, H. Nakatsuji, B. Mennucci, 
 C. Adamo, N. Rega, M. Caricato, H. P. Hratchian, J. V. Ortiz, 
 F. Pawlowski, A. F. Izmaylov, H. Hu, C. Liao, J. L. Sonnenberg, 
 D. Williams-Young, F. Ding, R. Gomperts, F. Egidi, J. Goings, 
 B. Peng, A. Petrone, T. Henderson, D. Ranasinghe, V. G. Zakrzewski, 
 J. Gao, G. Zheng, W. Liang, M. Hada, M. Ehara, K. Toyota, R. Fukuda, 
 J. Hasegawa, M. Ishida, T. Nakajima, Y. Honda, O. Kitao, H. Nakai, 
 T. Vreven, K. Throssell, J. A. Montgomery, Jr., J. E. Peralta, 
 F. Ogliaro, M. J. Bearpark, J. J. Heyd, E. N. Brothers, K. N. Kudin, 
 V. N. Staroverov, T. A. Keith, R. Kobayashi, J. Normand, 
 K. Raghavachari, A. P. Rendell, J. C. Burant, S. S. Iyengar, 
 M. Cossi, J. M. Millam, M. Klene, R. Cammi, R. L. Martin, O. Farkas, 
 J. B. Foresman, and D. J. Fox, Gaussian, Inc., Wallingford CT, 2024.
 
 *******************************************
 Gaussian DV:  ES64L-GDVRevJ.30+ 18-Dec-2024
                  2-Aug-2025 
 *******************************************
 %Chk=H2O_B3LYP_631pGdp.chk
 --------------------------------------------------------------
 #P B3LYP/6-31+G(d,p) SCF=(fermi,novaracc) Guess=Mix Stable=Opt
 --------------------------------------------------------------
 1/37=210000000,38=1,172=1/1;
 2/12=2/2;
 3/5=1,6=6,7=1011,11=2,25=1,30=1,74=-5/1,2,3;
 4/13=-1/1;
 5/5=2,22=13,38=1/2;
 6/7=2,8=2,9=2,10=2,28=1/1;
 8/6=1,10=90,11=11/1;
 9/8=-3,42=1,46=1/14;
 5/5=2,8=3,17=40,22=13,38=1/8(-2);
 6/7=2,8=2,9=2,10=2,28=1/1;
 99/5=1,9=1/99;
 Leave Link    1 at Sat Aug  2 15:31:03 2025, MaxMem=           0 cpu:               2.1 elap:               0.1
 (Enter /home/hhratchian/gaussian/gdv-20250101-j30+/gdv/local/l101.exe)
 
  Hrant - IAPOps =                         0
  Hrant - IAPOp1 =                         0
  Hrant - IAPOp2 =                         0
  Hrant - DoAP   =   F
 
 -------------------------------
 Initial Stability Check for H2O
 -------------------------------
 Symbolic Z-matrix:
 Charge =     0 Multiplicity =     1
 O                     0.        0.        0. 
 H                     0.7586    0.        0.50428 
 H                    -0.7586    0.        0.50428 
 
 ITRead=  0  0  0
 MicOpt= -1 -1 -1
 NAtoms=      3 NQM=        3 NQMF=       0 NMMI=      0 NMMIF=      0
                NMic=       0 NMicF=      0.
                    Isotopes and Nuclear Properties:
 (Nuclear quadrupole moments (NQMom) in fm**2, nuclear magnetic moments (NMagM)
  in nuclear magnetons)

  Atom         1           2           3
 IAtWgt=          16           1           1
 AtmWgt=  15.9949146   1.0078250   1.0078250
 NucSpn=           0           1           1
 AtZEff=   -0.000000   -0.000000   -0.000000
 NQMom=    0.0000000   0.0000000   0.0000000
 NMagM=    0.0000000   2.7928460   2.7928460
 AtZNuc=   8.0000000   1.0000000   1.0000000
 Leave Link  101 at Sat Aug  2 15:31:03 2025, MaxMem= 12348030976 cpu:               1.5 elap:               0.1
 (Enter /home/hhratchian/gaussian/gdv-20250101-j30+/gdv/l202.exe)
                          Input orientation:                          
 ---------------------------------------------------------------------
 Center     Atomic      Atomic             Coordinates (Angstroms)
 Number     Number       Type             X           Y           Z
 ---------------------------------------------------------------------
      1          8           0        0.000000    0.000000    0.000000
      2          1           0        0.758602    0.000000    0.504284
      3          1           0       -0.758602   -0.000000    0.504284
 ---------------------------------------------------------------------
                    Distance matrix (angstroms):
                    1          2          3
     1  O    0.000000
     2  H    0.910922   0.000000
     3  H    0.910922   1.517204   0.000000
 Stoichiometry    H2O
 Framework group  C2V[C2(O),SGV(H2)]
 Deg. of freedom     2
 Full point group                 C2V     NOp   4
 Largest Abelian subgroup         C2V     NOp   4
 Largest concise Abelian subgroup C2      NOp   2
                         Standard orientation:                         
 ---------------------------------------------------------------------
 Center     Atomic      Atomic             Coordinates (Angstroms)
 Number     Number       Type             X           Y           Z
 ---------------------------------------------------------------------
      1          8           0        0.000000    0.000000    0.100857
      2          1           0       -0.000000    0.758602   -0.403427
      3          1           0       -0.000000   -0.758602   -0.403427
 ---------------------------------------------------------------------
 Rotational constants (GHZ):        1110.1894251         435.6864908         312.8935057
 Leave Link  202 at Sat Aug  2 15:31:03 2025, MaxMem= 12348030976 cpu:               0.2 elap:               0.0
 (Enter /home/hhratchian/gaussian/gdv-20250101-j30+/gdv/local/l301.exe)
 Standard basis: 6-31+G(d,p) (6D, 7F)
 Ernie: Thresh=  0.10000D-02 Tol=  0.10000D-05 Strict=F.
 There are    14 symmetry adapted cartesian basis functions of A1  symmetry.
 There are     2 symmetry adapted cartesian basis functions of A2  symmetry.
 There are     5 symmetry adapted cartesian basis functions of B1  symmetry.
 There are     8 symmetry adapted cartesian basis functions of B2  symmetry.
 There are    14 symmetry adapted basis functions of A1  symmetry.
 There are     2 symmetry adapted basis functions of A2  symmetry.
 There are     5 symmetry adapted basis functions of B1  symmetry.
 There are     8 symmetry adapted basis functions of B2  symmetry.
    29 basis functions,    46 primitive gaussians,    29 cartesian basis functions
     5 alpha electrons        5 beta electrons
       nuclear repulsion energy         9.6435792538 Hartrees.
 IExCor=      4002 DFT=T Ex+Corr=B3LYP ScaHFX=  0.200000
 ScaDFX=  0.800000  0.720000  1.000000  0.810000  1.000000  0.000000
 ScaDFX=  0.000000  0.000000  0.000000  0.000000  0.000000  0.000000
 Grid=UltraFine IRanWt=     -1 IRanGd=            0 ICorTp=0 IEDCtl=  2004
 NAtoms=    3 NActive=    3 NUniq=    2 SFac= 2.25D+00 NAtFMM=   60 NAOKFM=F Big=F
 Integral buffers will be    131072 words long.
 Raffenetti 2 integral format.
 Two-electron integral symmetry is turned on.
 Leave Link  301 at Sat Aug  2 15:31:03 2025, MaxMem= 12348030976 cpu:               0.3 elap:               0.0
 (Enter /home/hhratchian/gaussian/gdv-20250101-j30+/gdv/l302.exe)
 NPDir=0 NMtPBC=     1 NCelOv=     1 NCel=       1 NClECP=     1 NCelD=      1
         NCelK=      1 NCelE2=     1 NClLst=     1 CellRange=     0.0.
 One-electron integrals computed using PRISM.
 One-electron integral symmetry used in STVInt
 NBasis=    29 RedAO= T EigKep=  1.62D-02  NBF=    14     2     5     8
 NBsUse=    29 1.00D-06 EigRej= -1.00D+00 NBFU=    14     2     5     8
 Precomputing XC quadrature grid using
 IXCGrd=   9 Grid=UltraFine IRanWt=          -1 IRanGd=           0 AccXCQ= 0.00D+00.
 Generated NRdTot=       0 NPtTot=       69653 NUsed=           0 NTot=          64
 NSgBfM=    29    29    29    29    29 MxSgAt=     3 MxSgA2=     3 SizInc=   0.000
 NMBTot=      713 MaxBatPerAtom=       83 MaxMicBPerAtom=      247 NBfPt=             1706707.
 Leave Link  302 at Sat Aug  2 15:31:03 2025, MaxMem= 12348030976 cpu:               4.4 elap:               0.1
 (Enter /home/hhratchian/gaussian/gdv-20250101-j30+/gdv/l303.exe)
 DipDrv:  MaxL=1.
 Leave Link  303 at Sat Aug  2 15:31:03 2025, MaxMem= 12348030976 cpu:               1.4 elap:               0.1
 (Enter /home/hhratchian/gaussian/gdv-20250101-j30+/gdv/l401.exe)
 ExpMin= 8.45D-02 ExpMax= 5.48D+03 ExpMxC= 8.25D+02 IAcc=3 Grid=UltraFine AccDes= 0.00D+00
 Harris functional with IExCor= 4002 and Grid=UltraFine diagonalized for initial guess.
 HarFok:  IExCor=    4002 AccDes= 0.00D+00 Grid=UltraFine IDoV= 1 UseB2=F ITyADJ=14 ICtDFT=  3500011
 FoFCou: FMM=F IPFlag=           0 FMFlag=      100000 FMFlg1=           0
         NFxFlg=           0 DoJE=T BraDBF=F KetDBF=T FulRan=T
         wScrn=  0.000000 ICntrl=       500 IOpCl=  0 I1Cent=   200000004 NGrid=           0
         NMat0=    1 NMatS0=      1 NMatT0=    0 NMatD0=    1 NMtDS0=    0 NMtDT0=    0
 Petite list used in FoFCou.
 Harris En= -76.4623514402669    
 JPrj=0 DoOrth=F DoCkMO=T.
 Mixing orbitals, IMix= 1 IMixAn=  0 NRI=1 NE=    5 Coef=  7.07106781D-01  7.07106781D-01
 Initial guess orbital symmetries:
       Occupied  (A1) (A1) (B2) (A1) (?A)
       Virtual   (?A) (B2) (A1) (B1) (B2) (A1) (B2) (A1) (B2) (B1)
                 (A1) (A1) (A2) (A1) (B1) (A1) (B2) (B2) (B1) (A2)
                 (A1) (A1) (B2) (A1)
 Leave Link  401 at Sat Aug  2 15:31:03 2025, MaxMem= 12348030976 cpu:               7.1 elap:               0.2
 (Enter /home/hhratchian/gaussian/gdv-20250101-j30+/gdv/local/l502.exe)
 Keep R1 ints in memory in symmetry-blocked form, NReq=48529600.
 FoFCou: FMM=F IPFlag=           0 FMFlag=           0 FMFlg1=           0
         NFxFlg=           0 DoJE=F BraDBF=F KetDBF=F FulRan=T
         wScrn=  0.000000 ICntrl=       600 IOpCl=  0 I1Cent=           0 NGrid=           0
         NMat0=    1 NMatS0=    435 NMatT0=    0 NMatD0=    1 NMtDS0=    0 NMtDT0=    0
 Petite list used in FoFCou.
 Closed shell SCF:
 Using DIIS extrapolation, IDIIS=    10.
 NGot= 12348030976 LenX= 12347998860 LenY= 12347997578
 Requested convergence on RMS density matrix=1.00D-08 within 128 cycles.
 Requested convergence on MAX density matrix=1.00D-06.
 Requested convergence on             energy=1.00D-06.
 Level shift goal  0.100 maximum shift  0.100.
 No special actions if energy rises.
 Dynamic level shift is on during FON iterations.
 An orbital has undefined symmetry, so N**3 symmetry is turned off.
 
  Hrant - CycOpn.
 

 Cycle   1  Pass 1  IDiag  1:
 Density matrix breaks symmetry, PCut= 1.00D-04
 Density matrix has no symmetry -- integrals replicated.
 E= -76.0617594670642    
 DIIS: error= 6.38D-02 at cycle   1 NSaved=   1.
 NSaved= 1 IEnMin= 1 EnMin= -76.0617594670642     IErMin= 1 ErrMin= 6.38D-02
 ErrMax= 6.38D-02  0.00D+00 EMaxC= 1.00D+00 BMatC= 2.28D-02 BMatP= 2.28D-02
 Rises=F IDIUse=1 WtCom= 1.00D+00 WtEn= 0.00D+00
 Coeff-Com:  0.100D+01
 Coeff:      0.100D+01
 Gap=     0.043 Goal=     0.100 Shift=    0.057
 T= 1949. Gap= 0.419 NK=0 IS=    6 IE=   29 IFin=    5
          NO(<0.9)=   0  NV(>0.1)=   0      5.00e < EF      0.00e >EF  Err=0.0D+00
 GapD=    0.043 DampG=0.250 DampE=0.500 DampFc=0.1250 IDamp=-1.
 Damping current iteration by 1.25D-01
 RMSDP=5.43D-02 MaxDP=7.27D-01              OVMax= 6.15D-01

 Cycle   2  Pass 1  IDiag  1:
 Density matrix breaks symmetry, PCut= 1.00D-04
 Density matrix has no symmetry -- integrals replicated.
 E= -76.1065372863053     Delta-E=       -0.044777819241 Rises=F Damp=T AM=F Ri=F Fa=F
 DIIS: error= 5.59D-02 at cycle   2 NSaved=   2.
 NSaved= 2 IEnMin= 2 EnMin= -76.1065372863053     IErMin= 2 ErrMin= 5.59D-02
 ErrMax= 5.59D-02  0.00D+00 EMaxC= 1.00D+00 BMatC= 1.72D-02 BMatP= 2.28D-02
 Rises=F IDIUse=1 WtCom= 1.00D+00 WtEn= 0.00D+00
 Coeff-Com: -0.224D+01 0.324D+01
 Coeff:     -0.224D+01 0.324D+01
 Gap=     0.333 Goal=     0.100 Shift=    0.000
 T= 1923. Gap= 0.339 NK=0 IS=    6 IE=   29 IFin=    5
          NO(<0.9)=   0  NV(>0.1)=   0      5.00e < EF      0.00e >EF  Err=0.0D+00
 GapD=    0.333 DampG=1.000 DampE=0.500 DampFc=0.5000 IDamp=-1.
 Damping current iteration by 5.00D-01
 RMSDP=5.11D-02 MaxDP=6.53D-01 DE=-4.48D-02 OVMax= 1.02D-01

 Cycle   3  Pass 1  IDiag  1:
 Density matrix breaks symmetry, PCut= 1.00D-04
 Density matrix has no symmetry -- integrals replicated.
 E= -76.2614404620719     Delta-E=       -0.154903175767 Rises=F Damp=T AM=F Ri=F Fa=F
 DIIS: error= 2.95D-02 at cycle   3 NSaved=   3.
 NSaved= 3 IEnMin= 3 EnMin= -76.2614404620719     IErMin= 3 ErrMin= 2.95D-02
 ErrMax= 2.95D-02  0.00D+00 EMaxC= 1.00D+00 BMatC= 4.24D-03 BMatP= 1.72D-02
 Rises=F IDIUse=1 WtCom= 1.00D+00 WtEn= 0.00D+00
 Coeff-Com:  0.231D+00-0.116D+01 0.193D+01
 Coeff:      0.231D+00-0.116D+01 0.193D+01
 Gap=     0.355 Goal=     0.100 Shift=    0.000
 T= 1799. Gap= 0.355 NK=0 IS=    6 IE=   29 IFin=    5
          NO(<0.9)=   0  NV(>0.1)=   0      5.00e < EF      0.00e >EF  Err=0.0D+00
 GapD=    0.355 DampG=1.000 DampE=0.500 DampFc=0.5000 IDamp=-1.
 Damping current iteration by 5.00D-01
 RMSDP=2.69D-02 MaxDP=3.28D-01 DE=-1.55D-01 OVMax= 3.59D-02

 Cycle   4  Pass 1  IDiag  1:
 Density matrix breaks symmetry, PCut= 1.00D-04
 Density matrix has no symmetry -- integrals replicated.
 E= -76.3424094092547     Delta-E=       -0.080968947183 Rises=F Damp=T AM=F Ri=F Fa=F
 DIIS: error= 1.51D-02 at cycle   4 NSaved=   4.
 NSaved= 4 IEnMin= 4 EnMin= -76.3424094092547     IErMin= 4 ErrMin= 1.51D-02
 ErrMax= 1.51D-02  0.00D+00 EMaxC= 1.00D+00 BMatC= 1.09D-03 BMatP= 4.24D-03
 Rises=F IDIUse=1 WtCom= 1.00D+00 WtEn= 0.00D+00
 Coeff-Com:  0.164D+00-0.198D+00-0.992D+00 0.203D+01
 Coeff:      0.164D+00-0.198D+00-0.992D+00 0.203D+01
 Gap=     0.358 Goal=     0.100 Shift=    0.000
 T= 1562. Gap= 0.358 NK=0 IS=    6 IE=   29 IFin=    5
          NO(<0.9)=   0  NV(>0.1)=   0      5.00e < EF      0.00e >EF  Err=0.0D+00
 GapD=    0.358 DampG=1.000 DampE=0.500 DampFc=0.5000 IDamp=-1.
 Damping current iteration by 5.00D-01
 RMSDP=1.38D-02 MaxDP=1.64D-01 DE=-8.10D-02 OVMax= 8.52D-03

 Cycle   5  Pass 1  IDiag  1:
 Density matrix breaks symmetry, PCut= 1.00D-04
 Density matrix has no symmetry -- integrals replicated.
 E= -76.3842936710263     Delta-E=       -0.041884261772 Rises=F Damp=T AM=F Ri=F Fa=F
 DIIS: error= 7.54D-03 at cycle   5 NSaved=   5.
 NSaved= 5 IEnMin= 5 EnMin= -76.3842936710263     IErMin= 5 ErrMin= 7.54D-03
 ErrMax= 7.54D-03  0.00D+00 EMaxC= 1.00D+00 BMatC= 2.68D-04 BMatP= 1.09D-03
 Rises=F IDIUse=1 WtCom= 1.00D+00 WtEn= 0.00D+00
 Coeff-Com:  0.171D-01 0.105D-01-0.156D+00-0.724D+00 0.185D+01
 Coeff:      0.171D-01 0.105D-01-0.156D+00-0.724D+00 0.185D+01
 Gap=     0.358 Goal=     0.100 Shift=    0.000
 T= 1168. Gap= 0.358 NK=0 IS=    6 IE=   29 IFin=    5
          NO(<0.9)=   0  NV(>0.1)=   0      5.00e < EF      0.00e >EF  Err=0.0D+00
 GapD=    0.358 DampG=1.000 DampE=1.000 DampFc=1.0000 IDamp=-1.
 RMSDP=6.92D-03 MaxDP=8.19D-02 DE=-4.19D-02 OVMax= 1.03D-03

 Cycle   6  Pass 1  IDiag  1:
 Density matrix breaks symmetry, PCut= 1.00D-04
 Density matrix has no symmetry -- integrals replicated.
 E= -76.4273557024233     Delta-E=       -0.043062031397 Rises=F Damp=F AM=F Ri=F Fa=F
 DIIS: error= 2.82D-04 at cycle   6 NSaved=   6.
 NSaved= 6 IEnMin= 6 EnMin= -76.4273557024233     IErMin= 6 ErrMin= 2.82D-04
 ErrMax= 2.82D-04  0.00D+00 EMaxC= 1.00D+00 BMatC= 9.95D-07 BMatP= 2.68D-04
 Rises=F IDIUse=1 WtCom= 1.00D+00 WtEn= 0.00D+00
 Coeff-Com:  0.306D-01-0.355D-01-0.257D-01-0.175D+00 0.453D+00 0.753D+00
 Coeff:      0.306D-01-0.355D-01-0.257D-01-0.175D+00 0.453D+00 0.753D+00
 Gap=     0.358 Goal=     0.100 Shift=    0.000
 RMSDP=3.87D-05 MaxDP=3.13D-04 DE=-4.31D-02 OVMax= 4.39D-04

 Cycle   7  Pass 1  IDiag  1:
 E= -76.4272999875582     Delta-E=        0.000055714865 Rises=F Damp=F AM=T Ri=T Fa=F
 DIIS: error= 2.51D-05 at cycle   7 NSaved=   7.
 NSaved= 7 IEnMin= 6 EnMin= -76.4273557024233     IErMin= 7 ErrMin= 2.51D-05
 ErrMax= 2.51D-05  0.00D+00 EMaxC= 1.00D+00 BMatC= 5.20D-09 BMatP= 9.95D-07
 Rises=T IDIUse=1 WtCom= 1.00D+00 WtEn= 0.00D+00
 Coeff-Com: -0.939D-03 0.161D-03 0.440D-02 0.158D-01-0.425D-01 0.476D-01
 Coeff-Com:  0.975D+00
 Coeff:     -0.939D-03 0.161D-03 0.440D-02 0.158D-01-0.425D-01 0.476D-01
 Coeff:      0.975D+00
 Gap=     0.358 Goal=   None    Shift=    0.000
 RMSDP=7.53D-06 MaxDP=7.00D-05 DE= 5.57D-05 OVMax= 6.53D-05

 Cycle   8  Pass 1  IDiag  1:
 E= -76.4273580380242     Delta-E=       -0.000058050466 Rises=F Damp=F AM=F Ri=F Fa=F
 DIIS: error= 1.36D-06 at cycle   8 NSaved=   8.
 NSaved= 8 IEnMin= 8 EnMin= -76.4273580380242     IErMin= 8 ErrMin= 1.36D-06
 ErrMax= 1.36D-06  0.00D+00 EMaxC= 1.00D+00 BMatC= 3.32D-11 BMatP= 5.20D-09
 Rises=F IDIUse=1 WtCom= 1.00D+00 WtEn= 0.00D+00
 Coeff-Com:  0.812D-04-0.162D-03 0.176D-04 0.117D-02-0.193D-02 0.783D-02
 Coeff-Com:  0.335D-01 0.959D+00
 Coeff:      0.812D-04-0.162D-03 0.176D-04 0.117D-02-0.193D-02 0.783D-02
 Coeff:      0.335D-01 0.959D+00
 Gap=     0.358 Goal=     0.100 Shift=    0.000
 RMSDP=3.75D-07 MaxDP=3.57D-06 DE=-5.81D-05 OVMax= 3.90D-06

 Cycle   9  Pass 1  IDiag  1:
 E= -76.4273573942060     Delta-E=        0.000000643818 Rises=F Damp=F AM=F Ri=F Fa=F
 DIIS: error= 4.72D-07 at cycle   9 NSaved=   9.
 NSaved= 9 IEnMin= 8 EnMin= -76.4273580380242     IErMin= 9 ErrMin= 4.72D-07
 ErrMax= 4.72D-07  0.00D+00 EMaxC= 1.00D+00 BMatC= 2.56D-12 BMatP= 3.32D-11
 Rises=F IDIUse=1 WtCom= 1.00D+00 WtEn= 0.00D+00
 Coeff-Com:  0.177D-05 0.759D-06 0.229D-05-0.158D-03 0.287D-03 0.106D-02
 Coeff-Com: -0.119D-01 0.138D+00 0.873D+00
 Coeff:      0.177D-05 0.759D-06 0.229D-05-0.158D-03 0.287D-03 0.106D-02
 Coeff:     -0.119D-01 0.138D+00 0.873D+00
 Gap=     0.358 Goal=     0.100 Shift=    0.000
 RMSDP=6.24D-08 MaxDP=4.73D-07 DE= 6.44D-07 OVMax= 7.97D-07

 Cycle  10  Pass 1  IDiag  1:
 E= -76.4273571347322     Delta-E=        0.000000259474 Rises=F Damp=F AM=F Ri=F Fa=F
 DIIS: error= 3.01D-08 at cycle  10 NSaved=  10.
 NSaved=10 IEnMin= 8 EnMin= -76.4273580380242     IErMin=10 ErrMin= 3.01D-08
 ErrMax= 3.01D-08  0.00D+00 EMaxC= 1.00D+00 BMatC= 9.05D-15 BMatP= 2.56D-12
 Rises=F IDIUse=1 WtCom= 1.00D+00 WtEn= 0.00D+00
 Coeff-Com: -0.330D-06 0.171D-05-0.263D-05-0.184D-04 0.369D-04 0.742D-04
 Coeff-Com: -0.131D-02 0.123D-01 0.103D+00 0.886D+00
 Coeff:     -0.330D-06 0.171D-05-0.263D-05-0.184D-04 0.369D-04 0.742D-04
 Coeff:     -0.131D-02 0.123D-01 0.103D+00 0.886D+00
 Gap=     0.358 Goal=     0.100 Shift=    0.000
 RMSDP=5.76D-09 MaxDP=3.68D-08 DE= 2.59D-07 OVMax= 5.81D-08

 Cycle  11  Pass 1  IDiag  1:
 E= -76.4273571713358     Delta-E=       -0.000000036604 Rises=F Damp=F AM=F Ri=F Fa=F
 DIIS: error= 4.95D-09 at cycle  11 NSaved=  11.
 NSaved=11 IEnMin= 8 EnMin= -76.4273580380242     IErMin=11 ErrMin= 4.95D-09
 ErrMax= 4.95D-09  0.00D+00 EMaxC= 1.00D+00 BMatC= 2.80D-16 BMatP= 9.05D-15
 Rises=F IDIUse=1 WtCom= 1.00D+00 WtEn= 0.00D+00
 Coeff-Com:  0.266D-07 0.622D-08-0.341D-06 0.471D-06 0.230D-06-0.258D-04
 Coeff-Com:  0.903D-04-0.381D-03-0.117D-01 0.421D-02 0.101D+01
 Coeff:      0.266D-07 0.622D-08-0.341D-06 0.471D-06 0.230D-06-0.258D-04
 Coeff:      0.903D-04-0.381D-03-0.117D-01 0.421D-02 0.101D+01
 Gap=     0.358 Goal=     0.100 Shift=    0.000
 RMSDP=9.95D-10 MaxDP=1.08D-08 DE=-3.66D-08 OVMax= 9.73D-09

 SCF Done:  E(RB3LYP) =  -76.4273571713     A.U. after   11 cycles
            NFock= 11  Conv=0.99D-09     -V/T= 2.0066
 KE=          75.929928 PE=        -199.657458 EE=          37.656593
 Leave Link  502 at Sat Aug  2 15:31:04 2025, MaxMem= 12348030976 cpu:               9.3 elap:               0.2
 (Enter /home/hhratchian/gaussian/gdv-20250101-j30+/gdv/l601.exe)
 Copying SCF densities to generalized density rwf, IOpCl= 0 IROHF=0.
 
 **********************************************************************
 
               Population analysis using the SCF Density.
 
 **********************************************************************
 
 Orbital symmetries:
       Occupied  (A1) (A1) (B2) (A1) (B1)
       Virtual   (A1) (B2) (B1) (A1) (B2) (A1) (B2) (A1) (B2) (A1)
                 (B1) (A1) (A2) (A1) (B1) (B2) (A1) (B2) (B1) (A2)
                 (A1) (A1) (B2) (A1)
 The electronic state is 1-A1.
 Alpha  occ. eigenvalues --      -19.15913      -1.04182      -0.57713      -0.38617      -0.32451
 Alpha virt. eigenvalues --        0.03391       0.11641       0.15488       0.15497       0.23621
 Alpha virt. eigenvalues --        0.24843       0.95723       1.02492       1.07417       1.09719
 Alpha virt. eigenvalues --        1.11348       1.22239       1.49530       1.58401       1.65428
 Alpha virt. eigenvalues --        2.24603       2.29629       2.64361       2.65775       2.74220
 Alpha virt. eigenvalues --        3.13343       3.44708       3.56130       4.00452
          Condensed to atoms (all electrons):
               1          2          3
     1  O    8.098852   0.308495   0.308495
     2  H    0.308495   0.359844  -0.026260
     3  H    0.308495  -0.026260   0.359844
 Mulliken charges:
               1
     1  O   -0.715842
     2  H    0.357921
     3  H    0.357921
 Sum of Mulliken charges=  -0.00000
 Mulliken charges with hydrogens summed into heavy atoms:
               1
     1  O   -0.000000
 Electronic spatial extent (au):  <R**2>=             19.4418
 Charge=             -0.0000 electrons
 Dipole moment (field-independent basis, Debye):
    X=             -0.0000    Y=             -0.0000    Z=             -2.0381  Tot=              2.0381
 Quadrupole moment (field-independent basis, Debye-Ang):
   XX=             -7.7614   YY=             -4.2040   ZZ=             -6.7019
   XY=              0.0000   XZ=              0.0000   YZ=             -0.0000
 Traceless Quadrupole moment (field-independent basis, Debye-Ang):
   XX=             -1.5390   YY=              2.0184   ZZ=             -0.4795
   XY=              0.0000   XZ=              0.0000   YZ=             -0.0000
 Octapole moment (field-independent basis, Debye-Ang**2):
  XXX=              0.0000  YYY=             -0.0000  ZZZ=             -1.5298  XYY=             -0.0000
  XXY=             -0.0000  XXZ=             -0.4761  XZZ=              0.0000  YZZ=             -0.0000
  YYZ=             -1.2748  XYZ=             -0.0000
 Hexadecapole moment (field-independent basis, Debye-Ang**3):
 XXXX=             -7.7833 YYYY=             -5.9127 ZZZZ=             -7.8209 XXXY=             -0.0000
 XXXZ=             -0.0000 YYYX=              0.0000 YYYZ=             -0.0000 ZZZX=             -0.0000
 ZZZY=             -0.0000 XXYY=             -2.5671 XXZZ=             -2.6316 YYZZ=             -2.1106
 XXYZ=              0.0000 YYXZ=              0.0000 ZZXY=             -0.0000
 N-N=           9.643579 E-N=        -199.657458  KE=          75.929928
 Symmetry A1   KE=          67.754629
 Symmetry A2   KE=           0.000000
 Symmetry B1   KE=           4.457733
 Symmetry B2   KE=           3.717566
 No NMR shielding tensors so no spin-rotation constants.
 Leave Link  601 at Sat Aug  2 15:31:04 2025, MaxMem= 12348030976 cpu:               4.3 elap:               0.1
 (Enter /home/hhratchian/gaussian/gdv-20250101-j30+/gdv/l801.exe)
 DoSCS=F DFT=T ScalE2(SS,OS)=  1.000000  1.000000
 Range of M.O.s used for correlation:     1    29
 NBasis=    29 NAE=     5 NBE=     5 NFC=     0 NFV=     0
 NROrb=     29 NOA=     5 NOB=     5 NVA=    24 NVB=    24
 Leave Link  801 at Sat Aug  2 15:31:04 2025, MaxMem= 12348030976 cpu:               0.2 elap:               0.0
 (Enter /home/hhratchian/gaussian/gdv-20250101-j30+/gdv/l914.exe)
 RHF ground state
 Doing stability rather than CIS.
 DoSCS=F DFT=T ScalE2(SS,OS)=  1.000000  1.000000
   ScalD2(USS,UOS,TSS,TOS,w)=  1.000000  1.000000  1.000000  1.000000  1.000000
 Keep R1 and R2 ints in memory in symmetry-blocked form, NReq=58253923.
 FoFCou: FMM=F IPFlag=           0 FMFlag=           0 FMFlg1=           0
         NFxFlg=           0 DoJE=F BraDBF=F KetDBF=F FulRan=T
         wScrn=  0.000000 ICntrl=       600 IOpCl=  0 I1Cent=           0 NGrid=           0
         NMat0=    1 NMatS0=    435 NMatT0=    0 NMatD0=    1 NMtDS0=    0 NMtDT0=    0
 Petite list used in FoFCou.
 MDV= 12348030976 DFT=T IDoStb=1 Mixed=T DoRPA=F DoScal=F NonHer=F
 Making orbital integer symmetry assigments:
 Orbital symmetries:
       Occupied  (A1) (A1) (B2) (A1) (B1)
       Virtual   (A1) (B2) (B1) (A1) (B2) (A1) (B2) (A1) (B2) (A1)
                 (B1) (A1) (A2) (A1) (B1) (B2) (A1) (B2) (B1) (A2)
                 (A1) (A1) (B2) (A1)
    24 initial guesses have been made.
 Convergence on wavefunction:    0.001000000000000
 Davidson Disk Diagonalization:  ConvIn= 1.00D-03 SkipCon=T Conv= 1.00D-03.
 Max sub-space:   480 initial roots:    24 roots to seek:     1 dimension of matrix:          240
 Iteration     1 Dimension    24 NMult     0 NNew     24
 CISAX will form    24 AO SS matrices at one time.
 NMat=    24 NSing=    12 JSym2X= 2.
 New state      1 was old state      2
 Excitation Energies [eV] at current iteration:
 Root      1 :     7.442295654477440
 Root      2 :     8.596082760952070
 Root      3 :     9.249707146498828
 Root      4 :     9.929341241327995
 Root      5 :    10.337821633622662
 Root      6 :    10.414109547192226
 Root      7 :    10.451388055199141
 Root      8 :    11.094110611867359
 Root      9 :    11.477201885941431
 Root     10 :    11.664092948075288
 Root     11 :    12.212562355407924
 Root     12 :    12.378415444557064
 Root     13 :    12.483840140940059
 Root     14 :    12.845662087968098
 Root     15 :    13.068504038379979
 Root     16 :    13.238107284606606
 Root     17 :    13.339890973045035
 Root     18 :    13.476017993785090
 Root     19 :    13.930973549444090
 Root     20 :    14.617512982097882
 Root     21 :    14.676509137962807
 Root     22 :    15.518470454560987
 Root     23 :    17.118272270794780
 Root     24 :    19.173178223230504
 Iteration     2 Dimension    48 NMult    24 NNew     24
 CISAX will form    24 AO SS matrices at one time.
 NMat=    24 NSing=    12 JSym2X= 2.
 Root      1 not converged, maximum delta is    0.029459873895044
 Excitation Energies [eV] at current iteration:
 Root      1 :     7.317135837563558   Change is   -0.125159816913881
 Root      2 :     8.562529834084831   Change is   -0.033552926867240
 Root      3 :     8.974870036026051   Change is   -0.274837110472778
 Root      4 :     9.781032878560275   Change is   -0.148308362767720
 Root      5 :    10.165687332157949   Change is   -0.285700723041192
 Root      6 :    10.254140052816151   Change is   -0.083681580806510
 Root      7 :    10.398555918639170   Change is   -0.015553628553056
 Root      8 :    10.978998322750382   Change is   -0.115112289116978
 Root      9 :    11.201436424211359   Change is   -0.275765461730072
 Root     10 :    11.631009472983669   Change is   -0.033083475091618
 Root     11 :    12.121475070824735   Change is   -0.256940373732329
 Root     12 :    12.151396214566123   Change is   -0.332443926373936
 Root     13 :    12.171861712783828   Change is   -0.040700642624095
 Root     14 :    12.770210390081189   Change is   -0.075451697886910
 Root     15 :    12.973879966872735   Change is   -0.094624071507244
 Root     16 :    13.222199935518690   Change is   -0.015907349087915
 Root     17 :    13.262972280987622   Change is   -0.076918692057413
 Root     18 :    13.459140005357805   Change is   -0.016877988427285
 Root     19 :    13.491387442477714   Change is   -0.439586106966374
 Root     20 :    14.362578383329955   Change is   -0.313930754632851
 Root     21 :    14.433728207531868   Change is   -0.183784774566016
 Root     22 :    14.725671427513376   Change is   -4.447506795717130
 Root     23 :    15.419554900607269   Change is   -0.098915553953718
 Root     24 :    16.223518851246990   Change is   -0.894753419547790
 Iteration     3 Dimension    54 NMult    48 NNew      6
 CISAX will form     6 AO SS matrices at one time.
 NMat=     6 NSing=     3 JSym2X= 2.
 Root      1 has converged.
 Excitation Energies [eV] at current iteration:
 Root      1 :     7.317038420821117   Change is   -0.000097416742442
 Root      2 :     8.562511400598764   Change is   -0.000018433486067
 Root      3 :     8.960147713423078   Change is   -0.014722322602972
 Root      4 :     9.780721088285478   Change is   -0.000311790274797
 Root      5 :    10.251330952678540   Change is   -0.002809100137612
 Root      6 :    10.398479310498750   Change is   -0.000076608140420
 Convergence achieved on expansion vectors.
 1PDM for each excited state written to RWF  633
 Ground to excited state transition densities written to RWF  633

 ***********************************************************************
 Stability analysis using <AA,BB:AA,BB> singles matrix:
 ***********************************************************************

 Eigenvectors of the stability matrix:
 
 Eigenvector   1:      Triplet-B1   Eigenvalue= 0.2688962  <S**2>=2.000
       5 ->  6         0.70082
 The wavefunction is stable under the perturbations considered.
 Leave Link  914 at Sat Aug  2 15:31:04 2025, MaxMem= 12348030976 cpu:              14.3 elap:               0.4
 (Enter /home/hhratchian/gaussian/gdv-20250101-j30+/gdv/l508.exe)
 The wavefunction is already stable.
 Leave Link  508 at Sat Aug  2 15:31:04 2025, MaxMem= 12348030976 cpu:               0.1 elap:               0.0
 (Enter /home/hhratchian/gaussian/gdv-20250101-j30+/gdv/l601.exe)
 Copying SCF densities to generalized density rwf, IOpCl= 0 IROHF=0.
 
 **********************************************************************
 
               Population analysis using the SCF Density.
 
 **********************************************************************
 
 Orbital symmetries:
       Occupied  (A1) (A1) (B2) (A1) (B1)
       Virtual   (A1) (B2) (B1) (A1) (B2) (A1) (B2) (A1) (B2) (A1)
                 (B1) (A1) (A2) (A1) (B1) (B2) (A1) (B2) (B1) (A2)
                 (A1) (A1) (B2) (A1)
 The electronic state is 1-A1.
 Alpha  occ. eigenvalues --      -19.15913      -1.04182      -0.57713      -0.38617      -0.32451
 Alpha virt. eigenvalues --        0.03391       0.11641       0.15488       0.15497       0.23621
 Alpha virt. eigenvalues --        0.24843       0.95723       1.02492       1.07417       1.09719
 Alpha virt. eigenvalues --        1.11348       1.22239       1.49530       1.58401       1.65428
 Alpha virt. eigenvalues --        2.24603       2.29629       2.64361       2.65775       2.74220
 Alpha virt. eigenvalues --        3.13343       3.44708       3.56130       4.00452
          Condensed to atoms (all electrons):
               1          2          3
     1  O    8.098852   0.308495   0.308495
     2  H    0.308495   0.359844  -0.026260
     3  H    0.308495  -0.026260   0.359844
 Mulliken charges:
               1
     1  O   -0.715842
     2  H    0.357921
     3  H    0.357921
 Sum of Mulliken charges=  -0.00000
 Mulliken charges with hydrogens summed into heavy atoms:
               1
     1  O   -0.000000
 Electronic spatial extent (au):  <R**2>=             19.4418
 Charge=             -0.0000 electrons
 Dipole moment (field-independent basis, Debye):
    X=             -0.0000    Y=             -0.0000    Z=             -2.0381  Tot=              2.0381
 Quadrupole moment (field-independent basis, Debye-Ang):
   XX=             -7.7614   YY=             -4.2040   ZZ=             -6.7019
   XY=              0.0000   XZ=              0.0000   YZ=             -0.0000
 Traceless Quadrupole moment (field-independent basis, Debye-Ang):
   XX=             -1.5390   YY=              2.0184   ZZ=             -0.4795
   XY=              0.0000   XZ=              0.0000   YZ=             -0.0000
 Octapole moment (field-independent basis, Debye-Ang**2):
  XXX=              0.0000  YYY=             -0.0000  ZZZ=             -1.5298  XYY=             -0.0000
  XXY=             -0.0000  XXZ=             -0.4761  XZZ=              0.0000  YZZ=             -0.0000
  YYZ=             -1.2748  XYZ=             -0.0000
 Hexadecapole moment (field-independent basis, Debye-Ang**3):
 XXXX=             -7.7833 YYYY=             -5.9127 ZZZZ=             -7.8209 XXXY=             -0.0000
 XXXZ=             -0.0000 YYYX=              0.0000 YYYZ=             -0.0000 ZZZX=             -0.0000
 ZZZY=             -0.0000 XXYY=             -2.5671 XXZZ=             -2.6316 YYZZ=             -2.1106
 XXYZ=              0.0000 YYXZ=              0.0000 ZZXY=             -0.0000
 N-N=           9.643579 E-N=        -199.657458  KE=          75.929928
 Symmetry A1   KE=          67.754629
 Symmetry A2   KE=           0.000000
 Symmetry B1   KE=           4.457733
 Symmetry B2   KE=           3.717566
 No NMR shielding tensors so no spin-rotation constants.
 Leave Link  601 at Sat Aug  2 15:31:04 2025, MaxMem= 12348030976 cpu:               6.1 elap:               0.2
 (Enter /home/hhratchian/gaussian/gdv-20250101-j30+/gdv/local/l9999.exe)
 Unable to Open any file for archive entry.
 1\1\GINC-HMNODE006\Stability\RB3LYP\6-31+G(d,p)\H2O1\AABOUTAKA\02-Aug-
 2025\0\\#P B3LYP/6-31+G(d,p) SCF=(fermi,novaracc) Guess=Mix Stable=Opt
 \\Initial Stability Check for H2O\\0,1\O,0,0.,0.,0.\H,0,0.758602,0.,0.
 504284\H,0,-0.758602,0.,0.504284\\Version=ES64L-GDVRevJ.30+\State=1-A1
 \HF=-76.4273572\RMSD=9.948e-10\Dipole=0.,0.,0.8018675\Quadrupole=1.500
 6586,-1.1441731,-0.3564855,0.,0.,0.\PG=C02V [C2(O1),SGV(H2)]\\@
 The archive entry for this job was punched.


 HONESTY IN A LAWYER IS LIKE A HEN'S HIND LEGS.
  -- MAGNUS OLESON, LAKE WOBEGON PATRIARCH, C.1875
 Job cpu time:       0 days  0 hours  0 minutes 52.9 seconds.
 Elapsed time:       0 days  0 hours  0 minutes  1.6 seconds.
 File lengths (MBytes):  RWF=     22 Int=      0 D2E=      0 Chk=      2 Scr=      2
 Normal termination of Gaussian DV at Sat Aug  2 15:31:05 2025.
 Initial command:
 /home/hhratchian/gaussian/gdv-20250101-j30+/gdv/local/l1.exe "/scratch/aaboutaka/1562791/Gau-23751.inp" -scrdir="/scratch/aaboutaka/1562791/"
 Default is to use a total of  56 processors:
                               56 via shared-memory
                                1 via Linda
 Entering Link 1 = /home/hhratchian/gaussian/gdv-20250101-j30+/gdv/local/l1.exe PID=     24523.
  
 Copyright (c) 1988-2024, Gaussian, Inc.  All Rights Reserved.
  
 This is the private, development version of
 the Gaussian(R) DV system of programs. It is based on
 the Gaussian(R) 16 system (copyright 2016, Gaussian, Inc.),
 the Gaussian(R) 09 system (copyright 2009, Gaussian, Inc.),
 the Gaussian(R) 03 system (copyright 2003, Gaussian, Inc.),
 the Gaussian(R) 98 system (copyright 1998, Gaussian, Inc.),
 the Gaussian(R) 94 system (copyright 1995, Gaussian, Inc.),
 the Gaussian 92(TM) system (copyright 1992, Gaussian, Inc.),
 the Gaussian 90(TM) system (copyright 1990, Gaussian, Inc.),
 the Gaussian 88(TM) system (copyright 1988, Gaussian, Inc.),
 the Gaussian 86(TM) system (copyright 1986, Carnegie Mellon
 University), and the Gaussian 82(TM) system (copyright 1983,
 Carnegie Mellon University). Gaussian is a federally registered
 trademark of Gaussian, Inc.
  
 This software contains proprietary and confidential information,
 including trade secrets, belonging to Gaussian, Inc.
  
 This software is provided under written license and may be
 used, copied, transmitted, or stored only in accord with that
 written license.
  
 The following legend is applicable only to US Government
 contracts under FAR:
  
                    RESTRICTED RIGHTS LEGEND
  
 Use, reproduction and disclosure by the US Government is
 subject to restrictions as set forth in subparagraphs (a)
 and (c) of the Commercial Computer Software - Restricted
 Rights clause in FAR 52.227-19.
  
 Gaussian, Inc.
 340 Quinnipiac St., Bldg. 40, Wallingford CT 06492
  
  
 ---------------------------------------------------------------
 Warning -- This program may not be used in any manner that
 competes with the business of Gaussian, Inc. or will provide
 assistance to any competitor of Gaussian, Inc.  The licensee
 of this program is prohibited from giving any competitor of
 Gaussian, Inc. access to this program.  By using this program,
 the user acknowledges that Gaussian, Inc. is engaged in the
 business of creating and licensing software in the field of
 computational chemistry and represents and warrants to the
 licensee that it is not a competitor of Gaussian, Inc. and that
 it will not use this program in any manner prohibited above.
 ---------------------------------------------------------------
  

 Cite this work as:
 Gaussian Development Version, Revision J.30+,
 M. J. Frisch, G. W. Trucks, G. Scalmani, J. R. Cheeseman, X. Li, 
 J. Bloino, B. G. Janesko, A. V. Marenich, J. Zheng, F. Lipparini, 
 A. Jenkins, A. Liu, H. Liu, H. B. Schlegel, G. E. Scuseria, 
 M. A. Robb, V. Barone, G. A. Petersson, H. Nakatsuji, B. Mennucci, 
 C. Adamo, N. Rega, M. Caricato, H. P. Hratchian, J. V. Ortiz, 
 F. Pawlowski, A. F. Izmaylov, H. Hu, C. Liao, J. L. Sonnenberg, 
 D. Williams-Young, F. Ding, R. Gomperts, F. Egidi, J. Goings, 
 B. Peng, A. Petrone, T. Henderson, D. Ranasinghe, V. G. Zakrzewski, 
 J. Gao, G. Zheng, W. Liang, M. Hada, M. Ehara, K. Toyota, R. Fukuda, 
 J. Hasegawa, M. Ishida, T. Nakajima, Y. Honda, O. Kitao, H. Nakai, 
 T. Vreven, K. Throssell, J. A. Montgomery, Jr., J. E. Peralta, 
 F. Ogliaro, M. J. Bearpark, J. J. Heyd, E. N. Brothers, K. N. Kudin, 
 V. N. Staroverov, T. A. Keith, R. Kobayashi, J. Normand, 
 K. Raghavachari, A. P. Rendell, J. C. Burant, S. S. Iyengar, 
 M. Cossi, J. M. Millam, M. Klene, R. Cammi, R. L. Martin, O. Farkas, 
 J. B. Foresman, and D. J. Fox, Gaussian, Inc., Wallingford CT, 2024.
 
 *******************************************
 Gaussian DV:  ES64L-GDVRevJ.30+ 18-Dec-2024
                  2-Aug-2025 
 *******************************************
 %Chk=H2O_B3LYP_631pGdp.chk
 ----------------------------------------------------------------------
 #P B3LYP chkbasis Geom=AllCheck Guess=Read Opt Freq SCF=(fermi, novara
 cc) int=superfinegrid
 ----------------------------------------------------------------------
 1/18=20,19=15,26=5,29=7,38=1/1,3;
 2/9=110,12=2/2;
 3/5=7,6=2,11=2,14=-4,25=1,30=1,67=1,71=1,74=-5,75=-7,116=-2/1,2,3;
 4/5=1/1;
 5/5=2,22=13,38=6/2;
 6/7=2,8=2,9=2,10=2,28=1/1;
 7//1,2,3,16;
 1/18=20,19=15,26=5/3(2);
 2/9=110/2;
 99//99;
 2/9=110/2;
 3/5=7,6=1,11=2,14=-2,25=1,30=1,71=1,74=-5,75=-7,82=7,187=7/1,2,3;
 4/5=5,16=3,69=1/1;
 5/5=2,22=13,38=1/2;
 7//1,2,3,16;
 1/18=20,19=15,26=5/3(-5);
 2/9=110/2;
 6/7=2,8=2,9=2,10=2,19=2,28=1/1;
 99/9=1/99;
 Leave Link    1 at Sat Aug  2 15:31:05 2025, MaxMem=           0 cpu:               1.4 elap:               0.1
 (Enter /home/hhratchian/gaussian/gdv-20250101-j30+/gdv/local/l101.exe)
 
  Hrant - IAPOps =                         0
  Hrant - IAPOp1 =                         0
  Hrant - IAPOp2 =                         0
  Hrant - DoAP   =   F
 
 Structure from the checkpoint file:  "H2O_B3LYP_631pGdp.chk"
 -------------------------------
 Initial Stability Check for H2O
 -------------------------------
 Charge =     0 Multiplicity =     1
 Z-Matrix found in chk file.
 O,0,0.,0.,0.
 H,0,0.758602,0.,0.504284
 H,0,-0.758602,0.,0.504284
 
 Recover connectivity data from disk.
 Initializing the GIC definitions file.
 ITRead=  0  0  0
 MicOpt= -1 -1 -1
 NAtoms=      3 NQM=        3 NQMF=       0 NMMI=      0 NMMIF=      0
                NMic=       0 NMicF=      0.
                    Isotopes and Nuclear Properties:
 (Nuclear quadrupole moments (NQMom) in fm**2, nuclear magnetic moments (NMagM)
  in nuclear magnetons)

  Atom         1           2           3
 IAtWgt=          16           1           1
 AtmWgt=  15.9949146   1.0078250   1.0078250
 NucSpn=           0           1           1
 AtZEff=    5.600000    1.000000    1.000000
 NQMom=    0.0000000   0.0000000   0.0000000
 NMagM=    0.0000000   2.7928460   2.7928460
 AtZNuc=   8.0000000   1.0000000   1.0000000
 Leave Link  101 at Sat Aug  2 15:31:08 2025, MaxMem= 12348030976 cpu:               4.7 elap:               3.4
 (Enter /home/hhratchian/gaussian/gdv-20250101-j30+/gdv/l103.exe)

 GradGradGradGradGradGradGradGradGradGradGradGradGradGradGradGradGradGrad
 Berny optimization.
 Initialization pass.
                           ----------------------------
                           !    Initial Parameters    !
                           ! (Angstroms and Degrees)  !
 --------------------------                            --------------------------
 ! Name  Definition              Value          Derivative Info.                !
 --------------------------------------------------------------------------------
 ! R1    R(1,2)                  0.9109         estimate D2E/DX2                !
 ! R2    R(1,3)                  0.9109         estimate D2E/DX2                !
 ! A1    A(2,1,3)              112.7717         estimate D2E/DX2                !
 --------------------------------------------------------------------------------
 Trust Radius=3.00D-01 FncErr=1.00D-07 GrdErr=1.00D-07 EigMax=2.50D+02 EigMin=1.00D-04
 Number of steps in this run=     20 maximum allowed number of steps=    100.
 GradGradGradGradGradGradGradGradGradGradGradGradGradGradGradGradGradGrad

 Leave Link  103 at Sat Aug  2 15:31:08 2025, MaxMem= 12348030976 cpu:               0.2 elap:               0.0
 (Enter /home/hhratchian/gaussian/gdv-20250101-j30+/gdv/l202.exe)
                          Input orientation:                          
 ---------------------------------------------------------------------
 Center     Atomic      Atomic             Coordinates (Angstroms)
 Number     Number       Type             X           Y           Z
 ---------------------------------------------------------------------
      1          8           0       -0.000000   -0.000000    0.000000
      2          1           0        0.758602    0.000000    0.504284
      3          1           0       -0.758602   -0.000000    0.504284
 ---------------------------------------------------------------------
                    Distance matrix (angstroms):
                    1          2          3
     1  O    0.000000
     2  H    0.910922   0.000000
     3  H    0.910922   1.517204   0.000000
 Stoichiometry    H2O
 Framework group  C2V[C2(O),SGV(H2)]
 Deg. of freedom     2
 Full point group                 C2V     NOp   4
 RotChk:  IX=0 Diff= 6.38D-16
 Largest Abelian subgroup         C2V     NOp   4
 Largest concise Abelian subgroup C2      NOp   2
                         Standard orientation:                         
 ---------------------------------------------------------------------
 Center     Atomic      Atomic             Coordinates (Angstroms)
 Number     Number       Type             X           Y           Z
 ---------------------------------------------------------------------
      1          8           0       -0.000000   -0.000000    0.100857
      2          1           0       -0.000000    0.758602   -0.403427
      3          1           0       -0.000000   -0.758602   -0.403427
 ---------------------------------------------------------------------
 Rotational constants (GHZ):        1110.1894251         435.6864908         312.8935057
 Leave Link  202 at Sat Aug  2 15:31:08 2025, MaxMem= 12348030976 cpu:               1.4 elap:               0.1
 (Enter /home/hhratchian/gaussian/gdv-20250101-j30+/gdv/local/l301.exe)
 Basis read from chk: "H2O_B3LYP_631pGdp.chk" (6D, 7F)
 No pseudopotential information found on chk file.
 There are    14 symmetry adapted cartesian basis functions of A1  symmetry.
 There are     2 symmetry adapted cartesian basis functions of A2  symmetry.
 There are     5 symmetry adapted cartesian basis functions of B1  symmetry.
 There are     8 symmetry adapted cartesian basis functions of B2  symmetry.
 There are    14 symmetry adapted basis functions of A1  symmetry.
 There are     2 symmetry adapted basis functions of A2  symmetry.
 There are     5 symmetry adapted basis functions of B1  symmetry.
 There are     8 symmetry adapted basis functions of B2  symmetry.
    29 basis functions,    46 primitive gaussians,    29 cartesian basis functions
     5 alpha electrons        5 beta electrons
       nuclear repulsion energy         9.6435792538 Hartrees.
 IExCor=      4002 DFT=T Ex+Corr=B3LYP ScaHFX=  0.200000
 ScaDFX=  0.800000  0.720000  1.000000  0.810000  1.000000  0.000000
 ScaDFX=  0.000000  0.000000  0.000000  0.000000  0.000000  0.000000
 Grid=SuperFine IRanWt=     -1 IRanGd=            0 ICorTp=0 IEDCtl=  2004
 NAtoms=    3 NActive=    3 NUniq=    2 SFac= 2.25D+00 NAtFMM=   60 NAOKFM=F Big=F
 Integral buffers will be    131072 words long.
 Raffenetti 2 integral format.
 Two-electron integral symmetry is turned on.
 No density basis found on file 200724.
 Leave Link  301 at Sat Aug  2 15:31:08 2025, MaxMem= 12348030976 cpu:               0.2 elap:               0.0
 (Enter /home/hhratchian/gaussian/gdv-20250101-j30+/gdv/l302.exe)
 NPDir=0 NMtPBC=     1 NCelOv=     1 NCel=       1 NClECP=     1 NCelD=      1
         NCelK=      1 NCelE2=     1 NClLst=     1 CellRange=     0.0.
 One-electron integrals computed using PRISM.
 One-electron integral symmetry used in STVInt
 NBasis=    29 RedAO= T EigKep=  1.62D-02  NBF=    14     2     5     8
 NBsUse=    29 1.00D-06 EigRej= -1.00D+00 NBFU=    14     2     5     8
 Precomputing XC quadrature grid using
 IXCGrd=   9 Grid=SuperFine IRanWt=          -1 IRanGd=           0 AccXCQ= 0.00D+00.
 Generated NRdTot=       0 NPtTot=      190779 NUsed=           0 NTot=          64
 NSgBfM=    29    29    29    29    29 MxSgAt=     3 MxSgA2=     3 SizInc=   0.000
 NMBTot=     1458 MaxBatPerAtom=      126 MaxMicBPerAtom=      488 NBfPt=             4637730.
 Leave Link  302 at Sat Aug  2 15:31:08 2025, MaxMem= 12348030976 cpu:               5.8 elap:               0.2
 (Enter /home/hhratchian/gaussian/gdv-20250101-j30+/gdv/l303.exe)
 DipDrv:  MaxL=1.
 Leave Link  303 at Sat Aug  2 15:31:08 2025, MaxMem= 12348030976 cpu:               1.2 elap:               0.0
 (Enter /home/hhratchian/gaussian/gdv-20250101-j30+/gdv/l401.exe)
 Initial guess from the checkpoint file:  "H2O_B3LYP_631pGdp.chk"
 B after Tr=    -0.000000    0.000000    0.000000
         Rot=    1.000000    0.000000    0.000000   -0.000000 Ang=   0.00 deg.
 AO Guess basis will be translated and rotated to current coordinates.
 JPrj=2 DoOrth=T DoCkMO=T.
 Initial guess orbital symmetries:
       Occupied  (A1) (A1) (B2) (A1) (B1)
       Virtual   (A1) (B2) (B1) (A1) (B2) (A1) (B2) (A1) (B2) (A1)
                 (B1) (A1) (A2) (A1) (B1) (B2) (A1) (B2) (B1) (A2)
                 (A1) (A1) (B2) (A1)
 The electronic state of the initial guess is 1-A1.
 Leave Link  401 at Sat Aug  2 15:31:09 2025, MaxMem= 12348030976 cpu:               1.5 elap:               0.1
 (Enter /home/hhratchian/gaussian/gdv-20250101-j30+/gdv/local/l502.exe)
 Keep R1 ints in memory in symmetry-blocked form, NReq=48751024.
 FoFCou: FMM=F IPFlag=           0 FMFlag=           0 FMFlg1=           0
         NFxFlg=           0 DoJE=F BraDBF=F KetDBF=F FulRan=T
         wScrn=  0.000000 ICntrl=       600 IOpCl=  0 I1Cent=           0 NGrid=           0
         NMat0=    1 NMatS0=    435 NMatT0=    0 NMatD0=    1 NMtDS0=    0 NMtDT0=    0
 Petite list used in FoFCou.
 Closed shell SCF:
 Using DIIS extrapolation, IDIIS=    10.
 NGot= 12348030976 LenX= 12347998860 LenY= 12347997578
 Requested convergence on RMS density matrix=1.00D-08 within 128 cycles.
 Requested convergence on MAX density matrix=1.00D-06.
 Requested convergence on             energy=1.00D-06.
 Level shift goal  0.100 maximum shift  0.100.
 No special actions if energy rises.
 Dynamic level shift is on during FON iterations.
 
  Hrant - CycOpn.
 

 Cycle   1  Pass 1  IDiag  1:
 E= -76.4273572445191    
 DIIS: error= 1.49D-08 at cycle   1 NSaved=   1.
 NSaved= 1 IEnMin= 1 EnMin= -76.4273572445191     IErMin= 1 ErrMin= 1.49D-08
 ErrMax= 1.49D-08  0.00D+00 EMaxC= 1.00D+00 BMatC= 2.15D-15 BMatP= 2.15D-15
 Rises=F IDIUse=1 WtCom= 1.00D+00 WtEn= 0.00D+00
 Coeff-Com:  0.100D+01
 Coeff:      0.100D+01
 Gap=     0.358 Goal=     0.100 Shift=    0.000
 RMSDP=2.36D-09 MaxDP=2.59D-08              OVMax= 2.26D-08

 SCF Done:  E(RB3LYP) =  -76.4273572445     A.U. after    1 cycles
            NFock=  1  Conv=0.24D-08     -V/T= 2.0066
 KE=          75.929928 PE=        -199.657458 EE=          37.656593
 Leave Link  502 at Sat Aug  2 15:31:09 2025, MaxMem= 12348030976 cpu:               5.1 elap:               0.2
 (Enter /home/hhratchian/gaussian/gdv-20250101-j30+/gdv/l601.exe)
 Copying SCF densities to generalized density rwf, IOpCl= 0 IROHF=0.
 
 **********************************************************************
 
               Population analysis using the SCF Density.
 
 **********************************************************************
 
 Orbital symmetries:
       Occupied  (A1) (A1) (B2) (A1) (B1)
       Virtual   (A1) (B2) (B1) (A1) (B2) (A1) (B2) (A1) (B2) (A1)
                 (B1) (A1) (A2) (A1) (B1) (B2) (A1) (B2) (B1) (A2)
                 (A1) (A1) (B2) (A1)
 The electronic state is 1-A1.
 Alpha  occ. eigenvalues --      -19.15913      -1.04182      -0.57713      -0.38617      -0.32451
 Alpha virt. eigenvalues --        0.03391       0.11641       0.15488       0.15497       0.23621
 Alpha virt. eigenvalues --        0.24843       0.95723       1.02492       1.07417       1.09719
 Alpha virt. eigenvalues --        1.11348       1.22239       1.49530       1.58401       1.65428
 Alpha virt. eigenvalues --        2.24603       2.29629       2.64361       2.65775       2.74220
 Alpha virt. eigenvalues --        3.13343       3.44708       3.56130       4.00452
          Condensed to atoms (all electrons):
               1          2          3
     1  O    8.098852   0.308495   0.308495
     2  H    0.308495   0.359844  -0.026260
     3  H    0.308495  -0.026260   0.359844
 Mulliken charges:
               1
     1  O   -0.715842
     2  H    0.357921
     3  H    0.357921
 Sum of Mulliken charges=   0.00000
 Mulliken charges with hydrogens summed into heavy atoms:
               1
     1  O    0.000000
 Electronic spatial extent (au):  <R**2>=             19.4418
 Charge=             -0.0000 electrons
 Dipole moment (field-independent basis, Debye):
    X=             -0.0000    Y=             -0.0000    Z=             -2.0381  Tot=              2.0381
 Quadrupole moment (field-independent basis, Debye-Ang):
   XX=             -7.7614   YY=             -4.2040   ZZ=             -6.7019
   XY=              0.0000   XZ=              0.0000   YZ=             -0.0000
 Traceless Quadrupole moment (field-independent basis, Debye-Ang):
   XX=             -1.5390   YY=              2.0184   ZZ=             -0.4795
   XY=              0.0000   XZ=              0.0000   YZ=             -0.0000
 Octapole moment (field-independent basis, Debye-Ang**2):
  XXX=              0.0000  YYY=             -0.0000  ZZZ=             -1.5298  XYY=             -0.0000
  XXY=              0.0000  XXZ=             -0.4761  XZZ=              0.0000  YZZ=             -0.0000
  YYZ=             -1.2748  XYZ=             -0.0000
 Hexadecapole moment (field-independent basis, Debye-Ang**3):
 XXXX=             -7.7833 YYYY=             -5.9127 ZZZZ=             -7.8209 XXXY=             -0.0000
 XXXZ=             -0.0000 YYYX=              0.0000 YYYZ=             -0.0000 ZZZX=             -0.0000
 ZZZY=             -0.0000 XXYY=             -2.5671 XXZZ=             -2.6316 YYZZ=             -2.1106
 XXYZ=             -0.0000 YYXZ=              0.0000 ZZXY=             -0.0000
 N-N=           9.643579 E-N=        -199.657458  KE=          75.929928
 Symmetry A1   KE=          67.754629
 Symmetry A2   KE=           0.000000
 Symmetry B1   KE=           4.457733
 Symmetry B2   KE=           3.717566
 No NMR shielding tensors so no spin-rotation constants.
 Leave Link  601 at Sat Aug  2 15:31:09 2025, MaxMem= 12348030976 cpu:               5.1 elap:               0.1
 (Enter /home/hhratchian/gaussian/gdv-20250101-j30+/gdv/l701.exe)
 ... and contract with generalized density number  0.
 Compute integral first derivatives.
 Leave Link  701 at Sat Aug  2 15:31:09 2025, MaxMem= 12348030976 cpu:               6.3 elap:               0.2
 (Enter /home/hhratchian/gaussian/gdv-20250101-j30+/gdv/l702.exe)
 L702 exits ... SP integral derivatives will be done elsewhere.
 Leave Link  702 at Sat Aug  2 15:31:09 2025, MaxMem= 12348030976 cpu:               0.2 elap:               0.0
 (Enter /home/hhratchian/gaussian/gdv-20250101-j30+/gdv/l703.exe)
 Integral derivatives from FoFJK, PRISM(SPDF).
 Compute integral first derivatives, UseDBF=F ICtDFT=           0.
 Calling FoFJK, ICntrl=      2127 FMM=F ISym2X=1 I1Cent= 0 IOpClX= 0 NMat=1 NMatS=1 NMatT=0.
 FoFJK:  IHMeth= 1 ICntrl=    2127 DoSepK=F KAlg= 0 I1Cent=           0 FoldK=F
 IRaf=         0 NMat=       1 IRICut=       1 DoRegI=T DoRafI=F ISym2E= 1 IDoP0=0 IntGTp=1.
 FoFCou: FMM=F IPFlag=           0 FMFlag=      100000 FMFlg1=         800
         NFxFlg=           0 DoJE=F BraDBF=F KetDBF=F FulRan=T
         wScrn=  0.000000 ICntrl=      2127 IOpCl=  0 I1Cent=           0 NGrid=           0
         NMat0=    1 NMatS0=      1 NMatT0=    0 NMatD0=    1 NMtDS0=    0 NMtDT0=    0
 Petite list used in FoFCou.
 Leave Link  703 at Sat Aug  2 15:31:09 2025, MaxMem= 12348030976 cpu:               6.7 elap:               0.2
 (Enter /home/hhratchian/gaussian/gdv-20250101-j30+/gdv/l716.exe)
 Dipole        =-5.41747149D-17 0.00000000D+00-8.01867395D-01
 ***** Axes restored to original set *****
 -------------------------------------------------------------------
 Center     Atomic                   Forces (Hartrees/Bohr)
 Number     Number              X              Y              Z
 -------------------------------------------------------------------
      1        8          -0.000000000   -0.000000000   -0.080220790
      2        1           0.047947010    0.000000000    0.040110395
      3        1          -0.047947010    0.000000000    0.040110395
 -------------------------------------------------------------------
 Cartesian Forces:  Max     0.080220790 RMS     0.039792370
 Leave Link  716 at Sat Aug  2 15:31:09 2025, MaxMem= 12348030976 cpu:               1.3 elap:               0.1
 (Enter /home/hhratchian/gaussian/gdv-20250101-j30+/gdv/l103.exe)

 GradGradGradGradGradGradGradGradGradGradGradGradGradGradGradGradGradGrad
 Berny optimization.
 FormGI is forming the generalized inverse of G from B-inverse, IUseBI=4.
 NTrRot=    -1 NTRed=     3 NAtoms=     3 NSkip=     0 NRank=     3 IsLin=F EigSml=8.5452D-01
 Internal  Forces:  Max     0.062134532 RMS     0.051188692
 Search for a local minimum.
 Step number   1 out of a maximum of   20
 All quantities printed in internal units (Hartrees-Bohrs-Radians)
 RMS Force = .51189D-01 SwitMx=.10000D-02 MixMth= 1
 Mixed Optimization -- RFO/linear search
 Second derivative matrix not updated -- first step.
 The second derivative matrix:
                          R1        R2        A1
           R1           0.67525
           R2           0.00000   0.67525
           A1           0.00000   0.00000   0.16000
 ITU=  0
     Eigenvalues ---    0.16000   0.67525   0.67525
 RFO step:  Lambda=-1.20450063D-02 EMin= 1.60000000D-01
 Linear search not attempted -- first point.
 GrdOpt: GIC=T ITstSp=  0 NP=   1 DidLin=F DidDIS=F IDoGRo=0 IDoRot=0
         ISwap=1 XLin= 0.000 DXMaxT= 0.300
 Iteration  1 RMS(Cart)=  0.03365358 RMS(Int)=  0.00214030
 Iteration  2 RMS(Cart)=  0.00133858 RMS(Int)=  0.00000243
 Iteration  3 RMS(Cart)=  0.00000101 RMS(Int)=  0.00000000
 Iteration  4 RMS(Cart)=  0.00000000 RMS(Int)=  0.00000000
 ClnCor:  largest displacement from symmetrization is 3.77D-17 for atom     1.
 Variable       Old X    -DE/DX   Delta X   Delta X   Delta X     New X
                                 (Linear)    (Quad)   (Total)
    R1        1.72139   0.06213   0.00000   0.09040   0.09040   1.81180
    R2        1.72139   0.06213   0.00000   0.09040   0.09040   1.81180
    A1        1.96824  -0.01181   0.00000  -0.06864  -0.06864   1.89960
         Item               Value     Threshold  Converged?
 Maximum Force            0.062135     0.000450     NO 
 RMS     Force            0.051189     0.000300     NO 
 Maximum Displacement     0.067486     0.001800     NO 
 RMS     Displacement     0.057818     0.001200     NO 
 Predicted change in Energy=-6.149321D-03
 Lowest energy point so far.  Saving SCF results.
 GradGradGradGradGradGradGradGradGradGradGradGradGradGradGradGradGradGrad

 Leave Link  103 at Sat Aug  2 15:31:09 2025, MaxMem= 12348030976 cpu:               1.4 elap:               0.1
 (Enter /home/hhratchian/gaussian/gdv-20250101-j30+/gdv/l202.exe)
                          Input orientation:                          
 ---------------------------------------------------------------------
 Center     Atomic      Atomic             Coordinates (Angstroms)
 Number     Number       Type             X           Y           Z
 ---------------------------------------------------------------------
      1          8           0       -0.000000    0.000000   -0.035712
      2          1           0        0.779761    0.000000    0.522140
      3          1           0       -0.779761   -0.000000    0.522140
 ---------------------------------------------------------------------
                    Distance matrix (angstroms):
                    1          2          3
     1  O    0.000000
     2  H    0.958762   0.000000
     3  H    0.958762   1.559521   0.000000
 Stoichiometry    H2O
 Framework group  C2V[C2(O),SGV(H2)]
 Deg. of freedom     2
 Full point group                 C2V     NOp   4
 RotChk:  IX=0 Diff= 8.55D-16
 Largest Abelian subgroup         C2V     NOp   4
 Largest concise Abelian subgroup C2      NOp   2
                         Standard orientation:                         
 ---------------------------------------------------------------------
 Center     Atomic      Atomic             Coordinates (Angstroms)
 Number     Number       Type             X           Y           Z
 ---------------------------------------------------------------------
      1          8           0        0.000000    0.000000    0.111570
      2          1           0       -0.000000    0.779761   -0.446281
      3          1           0       -0.000000   -0.779761   -0.446281
 ---------------------------------------------------------------------
 Rotational constants (GHZ):         907.2143008         412.3628502         283.5010250
 Leave Link  202 at Sat Aug  2 15:31:09 2025, MaxMem= 12348030976 cpu:               1.4 elap:               0.0
 (Enter /home/hhratchian/gaussian/gdv-20250101-j30+/gdv/local/l301.exe)
 Basis read from rwf:  (6D, 7F)
 No pseudopotential information found on rwf file.
 There are    14 symmetry adapted cartesian basis functions of A1  symmetry.
 There are     2 symmetry adapted cartesian basis functions of A2  symmetry.
 There are     5 symmetry adapted cartesian basis functions of B1  symmetry.
 There are     8 symmetry adapted cartesian basis functions of B2  symmetry.
 There are    14 symmetry adapted basis functions of A1  symmetry.
 There are     2 symmetry adapted basis functions of A2  symmetry.
 There are     5 symmetry adapted basis functions of B1  symmetry.
 There are     8 symmetry adapted basis functions of B2  symmetry.
    29 basis functions,    46 primitive gaussians,    29 cartesian basis functions
     5 alpha electrons        5 beta electrons
       nuclear repulsion energy         9.1703263576 Hartrees.
 IExCor=      4002 DFT=T Ex+Corr=B3LYP ScaHFX=  0.200000
 ScaDFX=  0.800000  0.720000  1.000000  0.810000  1.000000  0.000000
 ScaDFX=  0.000000  0.000000  0.000000  0.000000  0.000000  0.000000
 Grid=SuperFine IRanWt=     -1 IRanGd=            0 ICorTp=0 IEDCtl=  2004
 NAtoms=    3 NActive=    3 NUniq=    2 SFac= 2.25D+00 NAtFMM=   60 NAOKFM=F Big=F
 Integral buffers will be    131072 words long.
 Raffenetti 2 integral format.
 Two-electron integral symmetry is turned on.
 No density basis found on file    724.
 Leave Link  301 at Sat Aug  2 15:31:10 2025, MaxMem= 12348030976 cpu:               0.3 elap:               0.0
 (Enter /home/hhratchian/gaussian/gdv-20250101-j30+/gdv/l302.exe)
 NPDir=0 NMtPBC=     1 NCelOv=     1 NCel=       1 NClECP=     1 NCelD=      1
         NCelK=      1 NCelE2=     1 NClLst=     1 CellRange=     0.0.
 One-electron integrals computed using PRISM.
 One-electron integral symmetry used in STVInt
 NBasis=    29 RedAO= T EigKep=  1.78D-02  NBF=    14     2     5     8
 NBsUse=    29 1.00D-06 EigRej= -1.00D+00 NBFU=    14     2     5     8
 Precomputing XC quadrature grid using
 IXCGrd=   9 Grid=SuperFine IRanWt=          -1 IRanGd=           0 AccXCQ= 0.00D+00.
 Generated NRdTot=       0 NPtTot=      190961 NUsed=           0 NTot=          64
 NSgBfM=    29    29    29    29    29 MxSgAt=     3 MxSgA2=     3 SizInc=   0.000
 NMBTot=     1463 MaxBatPerAtom=      126 MaxMicBPerAtom=      490 NBfPt=             4644783.
 Leave Link  302 at Sat Aug  2 15:31:10 2025, MaxMem= 12348030976 cpu:               3.7 elap:               0.1
 (Enter /home/hhratchian/gaussian/gdv-20250101-j30+/gdv/l303.exe)
 DipDrv:  MaxL=1.
 Leave Link  303 at Sat Aug  2 15:31:10 2025, MaxMem= 12348030976 cpu:               1.3 elap:               0.1
 (Enter /home/hhratchian/gaussian/gdv-20250101-j30+/gdv/l401.exe)
 Initial guess from the checkpoint file:  "H2O_B3LYP_631pGdp.chk"
 B after Tr=    -0.000000   -0.000000   -0.000000
         Rot=    1.000000   -0.000000   -0.000000   -0.000000 Ang=   0.00 deg.
 AO Guess basis will be translated and rotated to current coordinates.
 JPrj=2 DoOrth=T DoCkMO=T.
 Initial guess orbital symmetries:
       Occupied  (A1) (A1) (B2) (A1) (B1)
       Virtual   (A1) (B2) (B1) (A1) (B2) (A1) (B2) (A1) (B2) (A1)
                 (B1) (A1) (A2) (A1) (B1) (B2) (A1) (B2) (B1) (A2)
                 (A1) (A1) (B2) (A1)
 The electronic state of the initial guess is 1-A1.
 Generating alternative initial guess.
 ExpMin= 8.45D-02 ExpMax= 5.48D+03 ExpMxC= 8.25D+02 IAcc=3 Grid=SuperFine AccDes= 0.00D+00
 Harris functional with IExCor= 4002 and Grid=SuperFine diagonalized for initial guess.
 HarFok:  IExCor=    4002 AccDes= 0.00D+00 Grid=SuperFine IDoV= 1 UseB2=F ITyADJ=14 ICtDFT=  3500011
 FoFCou: FMM=F IPFlag=           0 FMFlag=      100000 FMFlg1=           0
         NFxFlg=           0 DoJE=T BraDBF=F KetDBF=T FulRan=T
         wScrn=  0.000000 ICntrl=       500 IOpCl=  0 I1Cent=   200000004 NGrid=           0
         NMat0=    1 NMatS0=      1 NMatT0=    0 NMatD0=    1 NMtDS0=    0 NMtDT0=    0
 Petite list used in FoFCou.
 Harris En= -76.4637055726089    
 Leave Link  401 at Sat Aug  2 15:31:10 2025, MaxMem= 12348030976 cpu:               7.4 elap:               0.2
 (Enter /home/hhratchian/gaussian/gdv-20250101-j30+/gdv/local/l502.exe)
 Keep R1 ints in memory in symmetry-blocked form, NReq=48751024.
 FoFCou: FMM=F IPFlag=           0 FMFlag=           0 FMFlg1=           0
         NFxFlg=           0 DoJE=F BraDBF=F KetDBF=F FulRan=T
         wScrn=  0.000000 ICntrl=       600 IOpCl=  0 I1Cent=           0 NGrid=           0
         NMat0=    1 NMatS0=    435 NMatT0=    0 NMatD0=    1 NMtDS0=    0 NMtDT0=    0
 Petite list used in FoFCou.
 Closed shell SCF:
 Using DIIS extrapolation, IDIIS=    10.
 NGot= 12348030976 LenX= 12347998860 LenY= 12347997578
 Requested convergence on RMS density matrix=1.00D-08 within 128 cycles.
 Requested convergence on MAX density matrix=1.00D-06.
 Requested convergence on             energy=1.00D-06.
 Level shift goal  0.100 maximum shift  0.100.
 No special actions if energy rises.
 Dynamic level shift is on during FON iterations.
 
  Hrant - CycOpn.
 

 Cycle   1  Pass 1  IDiag  1:
 E= -76.4320840559191    
 DIIS: error= 8.67D-03 at cycle   1 NSaved=   1.
 NSaved= 1 IEnMin= 1 EnMin= -76.4320840559191     IErMin= 1 ErrMin= 8.67D-03
 ErrMax= 8.67D-03  0.00D+00 EMaxC= 1.00D+00 BMatC= 7.49D-04 BMatP= 7.49D-04
 Rises=F IDIUse=1 WtCom= 1.00D+00 WtEn= 0.00D+00
 Coeff-Com:  0.100D+01
 Coeff:      0.100D+01
 Gap=     0.349 Goal=     0.100 Shift=    0.000
 T=  752. Gap= 0.340 NK=0 IS=    6 IE=   29 IFin=    5
          NO(<0.9)=   0  NV(>0.1)=   0      5.00e < EF      0.00e >EF  Err=0.0D+00
 GapD=    0.349 DampG=1.000 DampE=1.000 DampFc=1.0000 IDamp=-1.
 RMSDP=1.94D-03 MaxDP=1.44D-02              OVMax= 2.21D-02

 Cycle   2  Pass 1  IDiag  1:
 E= -76.4332215255164     Delta-E=       -0.001137469597 Rises=F Damp=F AM=F Ri=F Fa=F
 DIIS: error= 6.12D-03 at cycle   2 NSaved=   2.
 NSaved= 2 IEnMin= 2 EnMin= -76.4332215255164     IErMin= 2 ErrMin= 6.12D-03
 ErrMax= 6.12D-03  0.00D+00 EMaxC= 1.00D+00 BMatC= 3.92D-04 BMatP= 7.49D-04
 Rises=F IDIUse=1 WtCom= 1.00D+00 WtEn= 0.00D+00
 Coeff-Com:  0.383D+00 0.617D+00
 Coeff:      0.383D+00 0.617D+00
 Gap=     0.352 Goal=     0.100 Shift=    0.000
 T=  690. Gap= 0.352 NK=0 IS=    6 IE=   29 IFin=    5
          NO(<0.9)=   0  NV(>0.1)=   0      5.00e < EF      0.00e >EF  Err=0.0D+00
 GapD=    0.352 DampG=1.000 DampE=1.000 DampFc=1.0000 IDamp=-1.
 RMSDP=7.90D-04 MaxDP=1.01D-02 DE=-1.14D-03 OVMax= 1.16D-02

 Cycle   3  Pass 1  IDiag  1:
 E= -76.4335886331169     Delta-E=       -0.000367107601 Rises=F Damp=F AM=F Ri=F Fa=F
 DIIS: error= 3.44D-03 at cycle   3 NSaved=   3.
 NSaved= 3 IEnMin= 3 EnMin= -76.4335886331169     IErMin= 3 ErrMin= 3.44D-03
 ErrMax= 3.44D-03  0.00D+00 EMaxC= 1.00D+00 BMatC= 1.40D-04 BMatP= 3.92D-04
 Rises=F IDIUse=1 WtCom= 1.00D+00 WtEn= 0.00D+00
 Coeff-Com: -0.723D-02 0.373D+00 0.634D+00
 Coeff:     -0.723D-02 0.373D+00 0.634D+00
 Gap=     0.348 Goal=     0.100 Shift=    0.000
 T=  538. Gap= 0.348 NK=0 IS=    6 IE=   29 IFin=    5
          NO(<0.9)=   0  NV(>0.1)=   0      5.00e < EF      0.00e >EF  Err=0.0D+00
 GapD=    0.348 DampG=1.000 DampE=1.000 DampFc=1.0000 IDamp=-1.
 RMSDP=3.23D-04 MaxDP=3.77D-03 DE=-3.67D-04 OVMax= 4.42D-03

 Cycle   4  Pass 1  IDiag  1:
 E= -76.4337887976786     Delta-E=       -0.000200164562 Rises=F Damp=F AM=F Ri=F Fa=F
 DIIS: error= 1.50D-04 at cycle   4 NSaved=   4.
 NSaved= 4 IEnMin= 4 EnMin= -76.4337887976786     IErMin= 4 ErrMin= 1.50D-04
 ErrMax= 1.50D-04  0.00D+00 EMaxC= 1.00D+00 BMatC= 2.44D-07 BMatP= 1.40D-04
 Rises=F IDIUse=1 WtCom= 1.00D+00 WtEn= 0.00D+00
 Coeff-Com: -0.707D-02 0.718D-01 0.133D+00 0.802D+00
 Coeff:     -0.707D-02 0.718D-01 0.133D+00 0.802D+00
 Gap=     0.348 Goal=     0.100 Shift=    0.000
 RMSDP=1.51D-05 MaxDP=8.17D-05 DE=-2.00D-04 OVMax= 2.23D-04

 Cycle   5  Pass 1  IDiag  1:
 E= -76.4337891957250     Delta-E=       -0.000000398046 Rises=F Damp=F AM=F Ri=F Fa=F
 DIIS: error= 1.26D-05 at cycle   5 NSaved=   5.
 NSaved= 5 IEnMin= 5 EnMin= -76.4337891957250     IErMin= 5 ErrMin= 1.26D-05
 ErrMax= 1.26D-05  0.00D+00 EMaxC= 1.00D+00 BMatC= 1.94D-09 BMatP= 2.44D-07
 Rises=F IDIUse=1 WtCom= 1.00D+00 WtEn= 0.00D+00
 Coeff-Com: -0.246D-03-0.339D-02-0.674D-02 0.416D-01 0.969D+00
 Coeff:     -0.246D-03-0.339D-02-0.674D-02 0.416D-01 0.969D+00
 Gap=     0.348 Goal=     0.100 Shift=    0.000
 RMSDP=2.93D-06 MaxDP=3.49D-05 DE=-3.98D-07 OVMax= 4.21D-05

 Cycle   6  Pass 1  IDiag  1:
 E= -76.4337891999359     Delta-E=       -0.000000004211 Rises=F Damp=F AM=F Ri=F Fa=F
 DIIS: error= 1.96D-06 at cycle   6 NSaved=   6.
 NSaved= 6 IEnMin= 6 EnMin= -76.4337891999359     IErMin= 6 ErrMin= 1.96D-06
 ErrMax= 1.96D-06  0.00D+00 EMaxC= 1.00D+00 BMatC= 2.87D-11 BMatP= 1.94D-09
 Rises=F IDIUse=1 WtCom= 1.00D+00 WtEn= 0.00D+00
 Coeff-Com:  0.488D-04-0.517D-03-0.513D-03-0.547D-02-0.520D-02 0.101D+01
 Coeff:      0.488D-04-0.517D-03-0.513D-03-0.547D-02-0.520D-02 0.101D+01
 Gap=     0.348 Goal=     0.100 Shift=    0.000
 RMSDP=2.52D-07 MaxDP=2.57D-06 DE=-4.21D-09 OVMax= 3.50D-06

 Cycle   7  Pass 1  IDiag  1:
 E= -76.4337891999911     Delta-E=       -0.000000000055 Rises=F Damp=F AM=F Ri=F Fa=F
 DIIS: error= 4.84D-08 at cycle   7 NSaved=   7.
 NSaved= 7 IEnMin= 7 EnMin= -76.4337891999911     IErMin= 7 ErrMin= 4.84D-08
 ErrMax= 4.84D-08  0.00D+00 EMaxC= 1.00D+00 BMatC= 2.70D-14 BMatP= 2.87D-11
 Rises=F IDIUse=1 WtCom= 1.00D+00 WtEn= 0.00D+00
 Coeff-Com: -0.869D-06 0.306D-04 0.331D-04-0.175D-03-0.377D-02-0.522D-01
 Coeff-Com:  0.106D+01
 Coeff:     -0.869D-06 0.306D-04 0.331D-04-0.175D-03-0.377D-02-0.522D-01
 Coeff:      0.106D+01
 Gap=     0.348 Goal=     0.100 Shift=    0.000
 RMSDP=1.68D-08 MaxDP=1.80D-07 DE=-5.52D-11 OVMax= 2.94D-07

 Cycle   8  Pass 1  IDiag  1:
 E= -76.4337891999911     Delta-E=        0.000000000000 Rises=F Damp=F AM=F Ri=F Fa=F
 DIIS: error= 5.50D-09 at cycle   8 NSaved=   8.
 NSaved= 8 IEnMin= 7 EnMin= -76.4337891999911     IErMin= 8 ErrMin= 5.50D-09
 ErrMax= 5.50D-09  0.00D+00 EMaxC= 1.00D+00 BMatC= 4.35D-16 BMatP= 2.70D-14
 Rises=F IDIUse=1 WtCom= 1.00D+00 WtEn= 0.00D+00
 Coeff-Com: -0.143D-06 0.207D-05 0.120D-05 0.377D-04 0.123D-03-0.201D-02
 Coeff-Com: -0.345D-01 0.104D+01
 Coeff:     -0.143D-06 0.207D-05 0.120D-05 0.377D-04 0.123D-03-0.201D-02
 Coeff:     -0.345D-01 0.104D+01
 Gap=     0.348 Goal=     0.100 Shift=    0.000
 RMSDP=9.43D-10 MaxDP=1.12D-08 DE= 0.00D+00 OVMax= 1.74D-08

 SCF Done:  E(RB3LYP) =  -76.4337892000     A.U. after    8 cycles
            NFock=  8  Conv=0.94D-09     -V/T= 2.0091
 KE=          75.748036 PE=        -198.644241 EE=          37.292090
 Leave Link  502 at Sat Aug  2 15:31:10 2025, MaxMem= 12348030976 cpu:              10.3 elap:               0.3
 (Enter /home/hhratchian/gaussian/gdv-20250101-j30+/gdv/l701.exe)
 ... and contract with generalized density number  0.
 Compute integral first derivatives.
 Leave Link  701 at Sat Aug  2 15:31:10 2025, MaxMem= 12348030976 cpu:               5.0 elap:               0.1
 (Enter /home/hhratchian/gaussian/gdv-20250101-j30+/gdv/l702.exe)
 L702 exits ... SP integral derivatives will be done elsewhere.
 Leave Link  702 at Sat Aug  2 15:31:10 2025, MaxMem= 12348030976 cpu:               1.3 elap:               0.1
 (Enter /home/hhratchian/gaussian/gdv-20250101-j30+/gdv/l703.exe)
 Integral derivatives from FoFJK, PRISM(SPDF).
 Compute integral first derivatives, UseDBF=F ICtDFT=           0.
 Calling FoFJK, ICntrl=      2127 FMM=F ISym2X=1 I1Cent= 0 IOpClX= 0 NMat=1 NMatS=1 NMatT=0.
 FoFJK:  IHMeth= 1 ICntrl=    2127 DoSepK=F KAlg= 0 I1Cent=           0 FoldK=F
 IRaf=         0 NMat=       1 IRICut=       1 DoRegI=T DoRafI=F ISym2E= 1 IDoP0=0 IntGTp=1.
 FoFCou: FMM=F IPFlag=           0 FMFlag=      100000 FMFlg1=         800
         NFxFlg=           0 DoJE=F BraDBF=F KetDBF=F FulRan=T
         wScrn=  0.000000 ICntrl=      2127 IOpCl=  0 I1Cent=           0 NGrid=           0
         NMat0=    1 NMatS0=      1 NMatT0=    0 NMatD0=    1 NMtDS0=    0 NMtDT0=    0
 Petite list used in FoFCou.
 Leave Link  703 at Sat Aug  2 15:31:11 2025, MaxMem= 12348030976 cpu:               6.6 elap:               0.2
 (Enter /home/hhratchian/gaussian/gdv-20250101-j30+/gdv/l716.exe)
 Dipole        =-5.71775324D-17 0.00000000D+00-8.41447506D-01
 ***** Axes restored to original set *****
 -------------------------------------------------------------------
 Center     Atomic                   Forces (Hartrees/Bohr)
 Number     Number              X              Y              Z
 -------------------------------------------------------------------
      1        8           0.000000000   -0.000000000   -0.012349818
      2        1           0.001599048    0.000000000    0.006174909
      3        1          -0.001599048    0.000000000    0.006174909
 -------------------------------------------------------------------
 Cartesian Forces:  Max     0.012349818 RMS     0.005097831
 Leave Link  716 at Sat Aug  2 15:31:11 2025, MaxMem= 12348030976 cpu:               0.1 elap:               0.0
 (Enter /home/hhratchian/gaussian/gdv-20250101-j30+/gdv/l103.exe)

 GradGradGradGradGradGradGradGradGradGradGradGradGradGradGradGradGradGrad
 Berny optimization.
 Using GEDIIS/GDIIS optimizer.
 FormGI is forming the generalized inverse of G from B-inverse, IUseBI=4.
 NTrRot=    -1 NTRed=     3 NAtoms=     3 NSkip=     0 NRank=     3 IsLin=F EigSml=7.9593D-01
 Internal  Forces:  Max     0.007413242 RMS     0.005855080
 Search for a local minimum.
 Step number   2 out of a maximum of   20
 All quantities printed in internal units (Hartrees-Bohrs-Radians)
 RMS Force = .58551D-02 SwitMx=.10000D-02 MixMth= 1
 Mixed Optimization -- RFO/linear search
 Update second derivatives using D2CorX and points    1    2
 DE= -6.43D-03 DEPred=-6.15D-03 R= 1.05D+00
 TightC=F SS=  1.41D+00  RLast= 1.45D-01 DXNew= 5.0454D-01 4.3533D-01
 Trust test= 1.05D+00 RLast= 1.45D-01 DXMaxT set to 4.35D-01
 The second derivative matrix:
                          R1        R2        A1
           R1           0.66682
           R2          -0.00843   0.66682
           A1           0.03323   0.03323   0.15159
 ITU=  1  0
 Use linear search instead of GDIIS.
     Eigenvalues ---    0.14726   0.66272   0.67525
 RFO step:  Lambda=-3.96427122D-04 EMin= 1.47264011D-01
 Quartic linear search produced a step of  0.15976.
 GrdOpt: GIC=T ITstSp=  0 NP=   2 DidLin=T DidDIS=F IDoGRo=0 IDoRot=0
         ISwap=1 XLin= 0.160 DXMaxT= 0.435
 Iteration  1 RMS(Cart)=  0.01755257 RMS(Int)=  0.00072571
 Iteration  2 RMS(Cart)=  0.00042934 RMS(Int)=  0.00000012
 Iteration  3 RMS(Cart)=  0.00000006 RMS(Int)=  0.00000000
 ClnCor:  largest displacement from symmetrization is 4.97D-16 for atom     3.
 Variable       Old X    -DE/DX   Delta X   Delta X   Delta X     New X
                                 (Linear)    (Quad)   (Total)
    R1        1.81180   0.00489   0.01444  -0.00193   0.01252   1.82431
    R2        1.81180   0.00489   0.01444  -0.00193   0.01252   1.82431
    A1        1.89960  -0.00741  -0.01097  -0.04992  -0.06089   1.83871
         Item               Value     Threshold  Converged?
 Maximum Force            0.007413     0.000450     NO 
 RMS     Force            0.005855     0.000300     NO 
 Maximum Displacement     0.034634     0.001800     NO 
 RMS     Displacement     0.030771     0.001200     NO 
 Predicted change in Energy=-2.403964D-04
 Lowest energy point so far.  Saving SCF results.
 GradGradGradGradGradGradGradGradGradGradGradGradGradGradGradGradGradGrad

 Leave Link  103 at Sat Aug  2 15:31:11 2025, MaxMem= 12348030976 cpu:               0.3 elap:               0.0
 (Enter /home/hhratchian/gaussian/gdv-20250101-j30+/gdv/l202.exe)
                          Input orientation:                          
 ---------------------------------------------------------------------
 Center     Atomic      Atomic             Coordinates (Angstroms)
 Number     Number       Type             X           Y           Z
 ---------------------------------------------------------------------
      1          8           0       -0.000000    0.000000   -0.054040
      2          1           0        0.767686    0.000000    0.531304
      3          1           0       -0.767686   -0.000000    0.531304
 ---------------------------------------------------------------------
                    Distance matrix (angstroms):
                    1          2          3
     1  O    0.000000
     2  H    0.965385   0.000000
     3  H    0.965385   1.535372   0.000000
 Stoichiometry    H2O
 Framework group  C2V[C2(O),SGV(H2)]
 Deg. of freedom     2
 Full point group                 C2V     NOp   4
 RotChk:  IX=0 Diff= 7.79D-16
 Largest Abelian subgroup         C2V     NOp   4
 Largest concise Abelian subgroup C2      NOp   2
                         Standard orientation:                         
 ---------------------------------------------------------------------
 Center     Atomic      Atomic             Coordinates (Angstroms)
 Number     Number       Type             X           Y           Z
 ---------------------------------------------------------------------
      1          8           0       -0.000000   -0.000000    0.117069
      2          1           0       -0.000000    0.767686   -0.468275
      3          1           0       -0.000000   -0.767686   -0.468275
 ---------------------------------------------------------------------
 Rotational constants (GHZ):         823.9980939         425.4367190         280.5740979
 Leave Link  202 at Sat Aug  2 15:31:11 2025, MaxMem= 12348030976 cpu:               1.5 elap:               0.0
 (Enter /home/hhratchian/gaussian/gdv-20250101-j30+/gdv/local/l301.exe)
 Basis read from rwf:  (6D, 7F)
 No pseudopotential information found on rwf file.
 There are    14 symmetry adapted cartesian basis functions of A1  symmetry.
 There are     2 symmetry adapted cartesian basis functions of A2  symmetry.
 There are     5 symmetry adapted cartesian basis functions of B1  symmetry.
 There are     8 symmetry adapted cartesian basis functions of B2  symmetry.
 There are    14 symmetry adapted basis functions of A1  symmetry.
 There are     2 symmetry adapted basis functions of A2  symmetry.
 There are     5 symmetry adapted basis functions of B1  symmetry.
 There are     8 symmetry adapted basis functions of B2  symmetry.
    29 basis functions,    46 primitive gaussians,    29 cartesian basis functions
     5 alpha electrons        5 beta electrons
       nuclear repulsion energy         9.1150803457 Hartrees.
 IExCor=      4002 DFT=T Ex+Corr=B3LYP ScaHFX=  0.200000
 ScaDFX=  0.800000  0.720000  1.000000  0.810000  1.000000  0.000000
 ScaDFX=  0.000000  0.000000  0.000000  0.000000  0.000000  0.000000
 Grid=SuperFine IRanWt=     -1 IRanGd=            0 ICorTp=0 IEDCtl=  2004
 NAtoms=    3 NActive=    3 NUniq=    2 SFac= 2.25D+00 NAtFMM=   60 NAOKFM=F Big=F
[...]
      1          8           0       -0.000000   -0.000000    0.116498
      2          1           0       -0.000000    0.769413   -0.465991
      3          1           0       -0.000000   -0.769413   -0.465991
 ---------------------------------------------------------------------
 Rotational constants (GHZ):         832.0931844         423.5293528         280.6702471
 Leave Link  202 at Sat Aug  2 15:31:18 2025, MaxMem= 12348030976 cpu:               2.6 elap:               0.1
 (Enter /home/hhratchian/gaussian/gdv-20250101-j30+/gdv/local/l301.exe)
 Basis read from chk: "H2O_B3LYP_631pGdp-stab.chk" (6D, 7F)
 No pseudopotential information found on chk file.
 There are    14 symmetry adapted cartesian basis functions of A1  symmetry.
 There are     2 symmetry adapted cartesian basis functions of A2  symmetry.
 There are     5 symmetry adapted cartesian basis functions of B1  symmetry.
 There are     8 symmetry adapted cartesian basis functions of B2  symmetry.
 There are    14 symmetry adapted basis functions of A1  symmetry.
 There are     2 symmetry adapted basis functions of A2  symmetry.
 There are     5 symmetry adapted basis functions of B1  symmetry.
 There are     8 symmetry adapted basis functions of B2  symmetry.
    29 basis functions,    46 primitive gaussians,    29 cartesian basis functions
     5 alpha electrons        5 beta electrons
       nuclear repulsion energy         9.1175043428 Hartrees.
 IExCor=      4002 DFT=T Ex+Corr=B3LYP ScaHFX=  0.200000
 ScaDFX=  0.800000  0.720000  1.000000  0.810000  1.000000  0.000000
 ScaDFX=  0.000000  0.000000  0.000000  0.000000  0.000000  0.000000
 Grid=UltraFine IRanWt=     -1 IRanGd=            0 ICorTp=0 IEDCtl=  2004
 NAtoms=    3 NActive=    3 NUniq=    2 SFac= 2.25D+00 NAtFMM=   60 NAOKFM=F Big=F
 Integral buffers will be    131072 words long.
 Raffenetti 2 integral format.
 Two-electron integral symmetry is turned on.
 No density basis found on file 200724.
 Leave Link  301 at Sat Aug  2 15:31:18 2025, MaxMem= 12348030976 cpu:               1.3 elap:               0.1
 (Enter /home/hhratchian/gaussian/gdv-20250101-j30+/gdv/l302.exe)
 NPDir=0 NMtPBC=     1 NCelOv=     1 NCel=       1 NClECP=     1 NCelD=      1
         NCelK=      1 NCelE2=     1 NClLst=     1 CellRange=     0.0.
 One-electron integrals computed using PRISM.
 One-electron integral symmetry used in STVInt
 NBasis=    29 RedAO= T EigKep=  1.75D-02  NBF=    14     2     5     8
 NBsUse=    29 1.00D-06 EigRej= -1.00D+00 NBFU=    14     2     5     8
 Precomputing XC quadrature grid using
 IXCGrd=   9 Grid=UltraFine IRanWt=          -1 IRanGd=           0 AccXCQ= 0.00D+00.
 Generated NRdTot=       0 NPtTot=       69798 NUsed=           0 NTot=          64
 NSgBfM=    29    29    29    29    29 MxSgAt=     3 MxSgA2=     3 SizInc=   0.000
 NMBTot=      720 MaxBatPerAtom=       83 MaxMicBPerAtom=      248 NBfPt=             1709767.
 Leave Link  302 at Sat Aug  2 15:31:18 2025, MaxMem= 12348030976 cpu:               5.9 elap:               0.2
 (Enter /home/hhratchian/gaussian/gdv-20250101-j30+/gdv/l303.exe)
 DipDrv:  MaxL=1.
 Leave Link  303 at Sat Aug  2 15:31:18 2025, MaxMem= 12348030976 cpu:               1.3 elap:               0.1
 (Enter /home/hhratchian/gaussian/gdv-20250101-j30+/gdv/l401.exe)
 Initial guess from the checkpoint file:  "H2O_B3LYP_631pGdp-stab.chk"
 B after Tr=    -0.000000    0.000000   -0.000000
         Rot=    1.000000    0.000000    0.000000    0.000000 Ang=   0.00 deg.
 AO Guess basis will be translated and rotated to current coordinates.
 JPrj=2 DoOrth=T DoCkMO=T.
 Initial guess orbital symmetries:
       Occupied  (A1) (A1) (B2) (A1) (B1)
       Virtual   (A1) (B2) (B1) (A1) (B2) (A1) (B2) (A1) (B2) (B1)
                 (A1) (A1) (A2) (A1) (B1) (A1) (B2) (B2) (A2) (B1)
                 (A1) (A1) (B2) (A1)
 The electronic state of the initial guess is 1-A1.
 Leave Link  401 at Sat Aug  2 15:31:18 2025, MaxMem= 12348030976 cpu:               1.6 elap:               0.1
 (Enter /home/hhratchian/gaussian/gdv-20250101-j30+/gdv/local/l502.exe)
 Keep R1 ints in memory in symmetry-blocked form, NReq=48529600.
 FoFCou: FMM=F IPFlag=           0 FMFlag=           0 FMFlg1=           0
         NFxFlg=           0 DoJE=F BraDBF=F KetDBF=F FulRan=T
         wScrn=  0.000000 ICntrl=       600 IOpCl=  0 I1Cent=           0 NGrid=           0
         NMat0=    1 NMatS0=    435 NMatT0=    0 NMatD0=    1 NMtDS0=    0 NMtDT0=    0
 Petite list used in FoFCou.
 Closed shell SCF:
 Using DIIS extrapolation, IDIIS=    10.
 NGot= 12348030976 LenX= 12347998860 LenY= 12347997578
 Requested convergence on RMS density matrix=1.00D-08 within 128 cycles.
 Requested convergence on MAX density matrix=1.00D-06.
 Requested convergence on             energy=1.00D-06.
 Level shift goal  0.100 maximum shift  0.100.
 No special actions if energy rises.
 Dynamic level shift is on during FON iterations.
 
  Hrant - CycOpn.
 

 Cycle   1  Pass 1  IDiag  1:
 E= -76.4340489135005    
 DIIS: error= 1.54D-08 at cycle   1 NSaved=   1.
 NSaved= 1 IEnMin= 1 EnMin= -76.4340489135005     IErMin= 1 ErrMin= 1.54D-08
 ErrMax= 1.54D-08  0.00D+00 EMaxC= 1.00D+00 BMatC= 2.06D-15 BMatP= 2.06D-15
 Rises=F IDIUse=1 WtCom= 1.00D+00 WtEn= 0.00D+00
 Coeff-Com:  0.100D+01
 Coeff:      0.100D+01
 Gap=     0.346 Goal=     0.100 Shift=    0.000
 RMSDP=1.80D-09 MaxDP=1.64D-08              OVMax= 1.33D-08

 SCF Done:  E(RB3LYP) =  -76.4340489135     A.U. after    1 cycles
            NFock=  1  Conv=0.18D-08     -V/T= 2.0093
 KE=          75.732728 PE=        -198.528957 EE=          37.244675
 Leave Link  502 at Sat Aug  2 15:31:18 2025, MaxMem= 12348030976 cpu:               5.1 elap:               0.2
 (Enter /home/hhratchian/gaussian/gdv-20250101-j30+/gdv/l601.exe)
 Copying SCF densities to generalized density rwf, IOpCl= 0 IROHF=0.
 
 **********************************************************************
 
               Population analysis using the SCF Density.
 
 **********************************************************************
 
 Orbital symmetries:
       Occupied  (A1) (A1) (B2) (A1) (B1)
       Virtual   (A1) (B2) (B1) (A1) (B2) (A1) (B2) (A1) (B2) (B1)
                 (A1) (A1) (A2) (A1) (B1) (A1) (B2) (B2) (A2) (B1)
                 (A1) (A1) (B2) (A1)
 The electronic state is 1-A1.
 Alpha  occ. eigenvalues --      -19.16961      -1.02232      -0.54233      -0.39425      -0.32104
 Alpha virt. eigenvalues --        0.02515       0.11450       0.15505       0.15506       0.20615
 Alpha virt. eigenvalues --        0.24196       0.90044       0.98871       1.08839       1.11265
 Alpha virt. eigenvalues --        1.12671       1.23129       1.50295       1.53632       1.63046
 Alpha virt. eigenvalues --        2.23027       2.24154       2.50098       2.63278       2.64586
 Alpha virt. eigenvalues --        3.02423       3.31877       3.51011       3.92168
          Condensed to atoms (all electrons):
               1          2          3
     1  O    8.147361   0.282275   0.282275
     2  H    0.282275   0.385852  -0.024083
     3  H    0.282275  -0.024083   0.385852
 Mulliken charges:
               1
     1  O   -0.711911
     2  H    0.355956
     3  H    0.355956
 Sum of Mulliken charges=  -0.00000
 Mulliken charges with hydrogens summed into heavy atoms:
               1
     1  O   -0.000000
 Electronic spatial extent (au):  <R**2>=             20.1422
 Charge=             -0.0000 electrons
 Dipole moment (field-independent basis, Debye):
    X=             -0.0000    Y=              0.0000    Z=             -2.1951  Tot=              2.1951
 Quadrupole moment (field-independent basis, Debye-Ang):
   XX=             -7.8841   YY=             -4.3758   ZZ=             -6.5375
   XY=              0.0000   XZ=              0.0000   YZ=             -0.0000
 Traceless Quadrupole moment (field-independent basis, Debye-Ang):
   XX=             -1.6183   YY=              1.8900   ZZ=             -0.2717
   XY=              0.0000   XZ=              0.0000   YZ=             -0.0000
 Octapole moment (field-independent basis, Debye-Ang**2):
  XXX=              0.0000  YYY=              0.0000  ZZZ=             -1.6088  XYY=             -0.0000
  XXY=             -0.0000  XXZ=             -0.4780  XZZ=             -0.0000  YZZ=             -0.0000
  YYZ=             -1.4077  XYZ=             -0.0000
 Hexadecapole moment (field-independent basis, Debye-Ang**3):
 XXXX=             -7.9583 YYYY=             -6.5054 ZZZZ=             -8.1554 XXXY=             -0.0000
 XXXZ=             -0.0000 YYYX=             -0.0000 YYYZ=             -0.0000 ZZZX=             -0.0000
 ZZZY=              0.0000 XXYY=             -2.6992 XXZZ=             -2.7378 YYZZ=             -2.1278
 XXYZ=             -0.0000 YYXZ=              0.0000 ZZXY=              0.0000
 N-N=           9.117504 E-N=        -198.528957  KE=          75.732728
 Symmetry A1   KE=          67.657661
 Symmetry A2   KE=           0.000000
 Symmetry B1   KE=           4.464296
 Symmetry B2   KE=           3.610771
 No NMR shielding tensors so no spin-rotation constants.
 Leave Link  601 at Sat Aug  2 15:31:19 2025, MaxMem= 12348030976 cpu:               6.1 elap:               0.2
 (Enter /home/hhratchian/gaussian/gdv-20250101-j30+/gdv/l801.exe)
 DoSCS=F DFT=T ScalE2(SS,OS)=  1.000000  1.000000
 Range of M.O.s used for correlation:     1    29
 NBasis=    29 NAE=     5 NBE=     5 NFC=     0 NFV=     0
 NROrb=     29 NOA=     5 NOB=     5 NVA=    24 NVB=    24
 Leave Link  801 at Sat Aug  2 15:31:19 2025, MaxMem= 12348030976 cpu:               0.1 elap:               0.0
 (Enter /home/hhratchian/gaussian/gdv-20250101-j30+/gdv/l914.exe)
 RHF ground state
 Doing stability rather than CIS.
 DoSCS=F DFT=T ScalE2(SS,OS)=  1.000000  1.000000
   ScalD2(USS,UOS,TSS,TOS,w)=  1.000000  1.000000  1.000000  1.000000  1.000000
 Keep R1 and R2 ints in memory in symmetry-blocked form, NReq=58253923.
 FoFCou: FMM=F IPFlag=           0 FMFlag=           0 FMFlg1=           0
         NFxFlg=           0 DoJE=F BraDBF=F KetDBF=F FulRan=T
         wScrn=  0.000000 ICntrl=       600 IOpCl=  0 I1Cent=           0 NGrid=           0
         NMat0=    1 NMatS0=    435 NMatT0=    0 NMatD0=    1 NMtDS0=    0 NMtDT0=    0
 Petite list used in FoFCou.
 MDV= 12348030976 DFT=T IDoStb=1 Mixed=T DoRPA=F DoScal=F NonHer=F
 Making orbital integer symmetry assigments:
 Orbital symmetries:
       Occupied  (A1) (A1) (B2) (A1) (B1)
       Virtual   (A1) (B2) (B1) (A1) (B2) (A1) (B2) (A1) (B2) (B1)
                 (A1) (A1) (A2) (A1) (B1) (A1) (B2) (B2) (A2) (B1)
                 (A1) (A1) (B2) (A1)
 The electronic state is 1-A1.
    24 initial guesses have been made.
 Convergence on wavefunction:    0.001000000000000
 Davidson Disk Diagonalization:  ConvIn= 1.00D-03 SkipCon=T Conv= 1.00D-03.
 Max sub-space:   480 initial roots:    24 roots to seek:     1 dimension of matrix:          240
 Iteration     1 Dimension    24 NMult     0 NNew     24
 CISAX will form    24 AO SS matrices at one time.
 NMat=    24 NSing=    12 JSym2X=-1.
 New state      1 was old state      2
 Excitation Energies [eV] at current iteration:
 Root      1 :     6.985127272407373
 Root      2 :     8.242066607528399
 Root      3 :     9.044945057574475
 Root      4 :     9.484857031128438
 Root      5 :    10.205310733486092
 Root      6 :    10.348947093601552
 Root      7 :    10.411133958716325
 Root      8 :    11.023100009497480
 Root      9 :    11.061538390935258
 Root     10 :    11.576972436427447
 Root     11 :    12.332211364196526
 Root     12 :    12.501938053647535
 Root     13 :    12.611003694085504
 Root     14 :    12.619910083005829
 Root     15 :    12.646124875100439
 Root     16 :    12.846099115358918
 Root     17 :    12.958032390551253
 Root     18 :    13.316063648313930
 Root     19 :    13.443033391678348
 Root     20 :    13.984317588641408
 Root     21 :    14.407129148196912
 Root     22 :    14.478672490094914
 Root     23 :    16.801971220572401
 Root     24 :    19.371480588530115
 Iteration     2 Dimension    48 NMult    24 NNew     24
 CISAX will form    24 AO SS matrices at one time.
 NMat=    24 NSing=    12 JSym2X=-1.
 Root      1 not converged, maximum delta is    0.034778091602133
 Excitation Energies [eV] at current iteration:
 Root      1 :     6.845483069922342   Change is   -0.139644202485030
 Root      2 :     8.200792930620823   Change is   -0.041273676907576
 Root      3 :     8.648993658392635   Change is   -0.395951399181839
 Root      4 :     9.287148851121188   Change is   -0.197708180007251
 Root      5 :    10.060603699869581   Change is   -0.288343393731969
 Root      6 :    10.184230164809779   Change is   -0.021080568676312
 Root      7 :    10.276344653322806   Change is   -0.134789305393521
 Root      8 :    10.554638543693706   Change is   -0.506899847241552
 Root      9 :    10.912466061701043   Change is   -0.110633947796437
 Root     10 :    11.544819525430432   Change is   -0.032152910997015
 Root     11 :    12.121993702091705   Change is   -0.497916380914123
 Root     12 :    12.272590680358942   Change is   -0.059620683837584
 Root     13 :    12.372154718776219   Change is   -0.273970156324221
 Root     14 :    12.419655594854543   Change is   -0.082282458792991
 Root     15 :    12.575088501751159   Change is   -0.382943888800094
 Root     16 :    12.597308592238289   Change is   -0.013695101847215
 Root     17 :    12.748316395880622   Change is   -0.097782719478297
 Root     18 :    13.269863808516925   Change is   -0.046199839797004
 Root     19 :    13.429207939717632   Change is   -0.013825451960715
 Root     20 :    13.879158346571456   Change is   -0.105159242069952
 Root     21 :    14.162363644392636   Change is   -0.316308845702276
 Root     22 :    14.310422859574789   Change is   -0.096706288622122
 Root     23 :    14.604024222873106   Change is   -4.767456365657011
 Root     24 :    15.735387378047932   Change is   -1.066583842524468
 Iteration     3 Dimension    54 NMult    48 NNew      6
 CISAX will form     6 AO SS matrices at one time.
 NMat=     6 NSing=     3 JSym2X=-1.
 Root      1 has converged.
 Excitation Energies [eV] at current iteration:
 Root      1 :     6.845361686236761   Change is   -0.000121383685581
 Root      2 :     8.200766601651219   Change is   -0.000026328969603
 Root      3 :     8.615586188767827   Change is   -0.033407469624809
 Root      4 :     9.286663998126702   Change is   -0.000484852994486
 Root      5 :    10.184120037358781   Change is   -0.000110127450999
 Root      6 :    10.270068605235210   Change is   -0.006276048087596
 Convergence achieved on expansion vectors.
 1PDM for each excited state written to RWF  633
 Ground to excited state transition densities written to RWF  633

 ***********************************************************************
 Stability analysis using <AA,BB:AA,BB> singles matrix:
 ***********************************************************************

 Eigenvectors of the stability matrix:
 
 Eigenvector   1:      Triplet-B1   Eigenvalue= 0.2515624  <S**2>=2.000
       5 ->  6         0.70034
 The wavefunction is stable under the perturbations considered.
 Leave Link  914 at Sat Aug  2 15:31:19 2025, MaxMem= 12348030976 cpu:              14.4 elap:               0.4
 (Enter /home/hhratchian/gaussian/gdv-20250101-j30+/gdv/l508.exe)
 The wavefunction is already stable.
 Leave Link  508 at Sat Aug  2 15:31:19 2025, MaxMem= 12348030976 cpu:               1.2 elap:               0.0
 (Enter /home/hhratchian/gaussian/gdv-20250101-j30+/gdv/l601.exe)
 Copying SCF densities to generalized density rwf, IOpCl= 0 IROHF=0.
 
 **********************************************************************
 
               Population analysis using the SCF Density.
 
 **********************************************************************
 
 Orbital symmetries:
       Occupied  (A1) (A1) (B2) (A1) (B1)
       Virtual   (A1) (B2) (B1) (A1) (B2) (A1) (B2) (A1) (B2) (B1)
                 (A1) (A1) (A2) (A1) (B1) (A1) (B2) (B2) (A2) (B1)
                 (A1) (A1) (B2) (A1)
 The electronic state is 1-A1.
 Alpha  occ. eigenvalues --      -19.16961      -1.02232      -0.54233      -0.39425      -0.32104
 Alpha virt. eigenvalues --        0.02515       0.11450       0.15505       0.15506       0.20615
 Alpha virt. eigenvalues --        0.24196       0.90044       0.98871       1.08839       1.11265
 Alpha virt. eigenvalues --        1.12671       1.23129       1.50295       1.53632       1.63046
 Alpha virt. eigenvalues --        2.23027       2.24154       2.50098       2.63278       2.64586
 Alpha virt. eigenvalues --        3.02423       3.31877       3.51011       3.92168
          Condensed to atoms (all electrons):
               1          2          3
     1  O    8.147361   0.282275   0.282275
     2  H    0.282275   0.385852  -0.024083
     3  H    0.282275  -0.024083   0.385852
 Mulliken charges:
               1
     1  O   -0.711911
     2  H    0.355956
     3  H    0.355956
 Sum of Mulliken charges=  -0.00000
 Mulliken charges with hydrogens summed into heavy atoms:
               1
     1  O   -0.000000
 Electronic spatial extent (au):  <R**2>=             20.1422
 Charge=             -0.0000 electrons
 Dipole moment (field-independent basis, Debye):
    X=             -0.0000    Y=              0.0000    Z=             -2.1951  Tot=              2.1951
 Quadrupole moment (field-independent basis, Debye-Ang):
   XX=             -7.8841   YY=             -4.3758   ZZ=             -6.5375
   XY=              0.0000   XZ=              0.0000   YZ=             -0.0000
 Traceless Quadrupole moment (field-independent basis, Debye-Ang):
   XX=             -1.6183   YY=              1.8900   ZZ=             -0.2717
   XY=              0.0000   XZ=              0.0000   YZ=             -0.0000
 Octapole moment (field-independent basis, Debye-Ang**2):
  XXX=              0.0000  YYY=              0.0000  ZZZ=             -1.6088  XYY=             -0.0000
  XXY=             -0.0000  XXZ=             -0.4780  XZZ=             -0.0000  YZZ=             -0.0000
  YYZ=             -1.4077  XYZ=             -0.0000
 Hexadecapole moment (field-independent basis, Debye-Ang**3):
 XXXX=             -7.9583 YYYY=             -6.5054 ZZZZ=             -8.1554 XXXY=             -0.0000
 XXXZ=             -0.0000 YYYX=             -0.0000 YYYZ=             -0.0000 ZZZX=             -0.0000
 ZZZY=              0.0000 XXYY=             -2.6992 XXZZ=             -2.7378 YYZZ=             -2.1278
 XXYZ=             -0.0000 YYXZ=              0.0000 ZZXY=              0.0000
 N-N=           9.117504 E-N=        -198.528957  KE=          75.732728
 Symmetry A1   KE=          67.657661
 Symmetry A2   KE=           0.000000
 Symmetry B1   KE=           4.464296
 Symmetry B2   KE=           3.610771
 No NMR shielding tensors so no spin-rotation constants.
 Leave Link  601 at Sat Aug  2 15:31:19 2025, MaxMem= 12348030976 cpu:               6.5 elap:               0.2
 (Enter /home/hhratchian/gaussian/gdv-20250101-j30+/gdv/local/l9999.exe)
 Unable to Open any file for archive entry.
 1\1\GINC-HMNODE006\Stability\RB3LYP\Gen\H2O1\AABOUTAKA\02-Aug-2025\0\\
 #P B3LYP chkbasis Geom=AllCheck Guess=Read Stable=Opt SCF=(fermi,novar
 acc)\\Initial Stability Check for H2O\\0,1\O,0,0.,0.,-0.0521366858\H,0
 ,0.7694125629,0.,0.5303523429\H,0,-0.7694125629,0.,0.5303523429\\Versi
 on=ES64L-GDVRevJ.30+\State=1-A1\HF=-76.4340489\RMSD=1.802e-09\Dipole=0
 .,0.,0.8636162\Quadrupole=1.4051476,-1.2031353,-0.2020123,0.,0.,0.\PG=
 C02V [C2(O1),SGV(H2)]\\@
 The archive entry for this job was punched.


 PERICLES, SOPHOCLES,
 PELOPONESIAN WAR,
 FRENCH VERBS, LATIN VERBS
 H2SO4.
 Job cpu time:       0 days  0 hours  0 minutes 51.0 seconds.
 Elapsed time:       0 days  0 hours  0 minutes  1.8 seconds.
 File lengths (MBytes):  RWF=     30 Int=      0 D2E=      0 Chk=     74 Scr=      2
 Normal termination of Gaussian DV at Sat Aug  2 15:31:19 2025.
