 Set GAUSS_MDEF to "92GB".
 Set GAUSS_PDEF to "56".
 Entering Gaussian System, Link 0=gdv
 AtFile(1): SDDPlusTZ.gbs
            ! SDDPlusTZ Basis Set + ECP
            !
            !
            ! Last updated/modified by: H. P. Hratchian, August 2017.
            !
            !
            ! This file contains parameters for the SDD+TZ basis set and ECP, given in the
            ! Gaussian input format. This set is often used in the Hratchian Group's metal
            ! oxide cluster work. References to this basis and ECP are:
            !      (1) Waller, S. E.; Mann, J. E.; Rothgeb, D. W.; Jarrold, C. C. J. Phys.
            !          Chem. A 2012, 116 (39), 9639–9652.
            !      (2) Mayhall, N. J.; Rothgeb, D. W.; Hossain, E.; Raghavachari, K.;
            !          Jarrold, C. C. J. Chem. Phys. 2009, 130, 124313− 124323.
            !      (3) Andrae, D.; Haussermann, U.; Dolg, M.; Stoll, H.; Preuss, H. Theor.
            !          Chim. Acta 1990, 77, 123−141.
            !
            -Sc 0
            SDD
            S 1 1.00
             0.003 1.0
            P 1 1.00
             0.0071415 1.0
            D 1 1.00
             0.012 1.0
             F   1 1.00
                  0.180    1.0
             F   1 1.00
                  0.764    1.0
             G   1 1.00
                  0.347    1.0
            ****
            -Ti 0
            SDD
            S 1 1.00
             0.003 1.0
            P 1 1.00
             0.0071352 1.0
            D 1 1.00
             0.015 1.0
             F   1 1.00
                  0.285    1.0
             F   1 1.00
                  1.264    1.0
             G   1 1.00
                  0.636    1.0
            ****
            -V 0
            SDD
            S 1 1.00
             0.003 1.0
            P 1 1.00
             0.0079179 1.0
            D 1 1.00
             0.018 1.0
             F   1 1.00
                  0.425    1.0
             F   1 1.00
                  1.788    1.0
             G   1 1.00
                  1.048    1.0
            ****
            -Cr 0
            SDD
            S 1 1.00
             0.003 1.0
            P 1 1.00
             0.0079935 1.0
            D 1 1.00
             0.021 1.0
             F   1 1.00
                  0.640    1.0
             F   1 1.00
                  2.555    1.0
             G   1 1.00
                  1.712    1.0
            ****
            -Mn 0
            SDD
            S 1 1.00
             0.003 1.0
            P 1 1.00
             0.0084888 1.0
            D 1 1.00
             0.021 1.0
             F   1 1.00
                  0.795    1.0
             F   1 1.00
                  3.118    1.0
             G   1 1.00
                  1.964    1.0
            ****
            -Fe 0
            SDD
            S 1 1.00
             0.003 1.0
            P 1 1.00
             0.0088332 1.0
            D 1 1.00
             0.024 1.0
             F   1 1.00
                  0.871    1.0
             F   1 1.00
                  3.516    1.0
             G   1 1.00
                  2.269    1.0
            ****
            -Co 0
            SDD
            S 1 1.00
             0.003 1.0
            P 1 1.00
             0.0091782 1.0
            D 1 1.00
             0.027 1.0
             F   1 1.00
                  1.019    1.0
             F   1 1.00
                  4.076    1.0
             G   1 1.00
                  2.711    1.0
            ****
            -Ni 0
            SDD
            S 1 1.00
             0.003 1.0
            P 1 1.00
             0.0095352 1.0
            D 1 1.00
             0.027 1.0
             F   1 1.00
                  1.182    1.0
             F   1 1.00
                  4.685    1.0
             G   1 1.00
                  3.212    1.0
            ****
            -Cu 0
            SDD
            S 1 1.00
             0.003 1.0
            P 1 1.00
             0.0092634 1.0
            D 1 1.00
             0.030 1.0
             F   1 1.00
                  1.315    1.0
             F   1 1.00
                  5.208    1.0
             G   1 1.00
                  3.665    1.0
            ****
            -Zn 0
            SDD
            S 1 1.00
             0.003 1.0
            P 1 1.00
             0.0149958 1.0
            D 1 1.00
             0.033 1.0
             F   1 1.00
                  1.498    1.0
             F   1 1.00
                  5.871    1.0
             G   1 1.00
                  4.365    1.0
            ****
            -Y 0
            SDD
            S 1 1.00
             0.003 1.0
            P 1 1.00
             0.0066708 1.0
            D 1 1.00
             0.006 1.0
             F   1 1.00
                  0.144    1.0
             F   1 1.00
                  0.546    1.0
             G   1 1.00
                  0.249    1.0
            ****
            -Zr 0
            SDD
            S 1 1.00
             0.0033 1.0
            P 1 1.00
             0.0067569 1.0
            D 1 1.00
             0.009 1.0
             F   1 1.00
                  0.236    1.0
             F   1 1.00
                  0.883    1.0
             G   1 1.00
                  0.547    1.0
            ****
            -Nb 0
            SDD
            S 1 1.00
             0.0045 1.0
            P 1 1.00
             0.0701512 1.0
            D 1 1.00
             0.011 1.0
             F    1 1.00
                   0.261   1.0
             F    1 1.00
                   0.970   1.0
             G    1 1.00
                   0.536   1.0
            ****
            -Mo 0
            SDD
            S 1 1.00
             0.0045 1.0
            P 1 1.00
             0.0070821 1.0
            D 1 1.00
             0.0129 1.0
             F   1 1.00
                  0.338    1.0
             F   1 1.00
                  1.223    1.0
             G   1 1.00
                  0.744    1.0
            ****
            -Ru 0
            SDD
            S 1 1.00
             0.0048 1.0
            P 1 1.00
             0.0068781 1.0
            D 1 1.00
             0.0153 1.0
             F   1 1.00
                  0.478    1.0
             F   1 1.00
                  1.666    1.0
             G   1 1.00
                  1.057    1.0
            ****
            -Rh 0
            SDD
            S 1 1.00
             0.0048 1.0
            P 1 1.00
             0.007251 1.0
            D 1 1.00
             0.0165 1.0
             F   1 1.00
                  0.567    1.0
             F   1 1.00
                  1.989    1.0
             G   1 1.00
                  1.236    1.0
            ****
            -Pd 0
            SDD
            S 1 1.00
             0.0048 1.0
            P 1 1.00
             0.0074262 1.0
            D 1 1.00
             0.018 1.0
             F   1 1.00
                  0.621    1.0
             F   1 1.00
                  2.203    1.0
             G   1 1.00
                  1.385    1.0
            ****
            -Ag 0
            SDD
            S 1 1.00
             0.0048 1.0
            P 1 1.00
             0.0071169 1.0
            D 1 1.00
             0.0198 1.0
             F   1 1.00
                  0.732    1.0
             F   1 1.00
                  2.537    1.0
             G   1 1.00
                  1.587    1.0
            ****
            -Cd 0
            SDD
            S 1 1.00
             0.0057 1.0
            P 1 1.00
             0.0109932 1.0
            D 1 1.00
             0.0225 1.0
             F   1 1.00
                  0.834    1.0
             F   1 1.00
                  2.853    1.0
             G   1 1.00
                  1.795    1.0
            ****
            -W 0
             SDD
            S 1 1.00
             0.0045 1.0
            P 1 1.00
             0.0081084 1.0
            D 1 1.00
             0.012 1.0
             F   1 1.00
                  0.256    1.0
             F   1 1.00
                  0.825    1.0
             G   1 1.00
                  0.627    1.0
            ****
            -Os 0
            SDD
            S 1 1.00
             0.0045 1.0
            P 1 1.00
             0.0079971 1.0
            D 1 1.00
             0.015 1.0
             F   1 1.00
                  0.347    1.0
             F   1 1.00
                  1.067    1.0
             G   1 1.00
                  0.860    1.0
            ****
            -Ir 0
            SDD
            S 1 1.00
             0.0045 1.0
            P 1 1.00
             0.0082092 1.0
            D 1 1.00
             0.015 1.0
             F   1 1.00
                  0.395    1.0
             F   1 1.00
                  1.189    1.0
             G   1 1.00
                  0.982    1.0
            ****
            -Pt 0
            SDD
            S 1 1.00
             0.0045 1.0
            P 1 1.00
             0.0083406 1.0
            D 1 1.00
             0.015 1.0
             F   1 1.00
                  0.443    1.0
             F   1 1.00
                  1.323    1.0
             G   1 1.00
                  1.100    1.0
            ****
            -Au 0
            SDD
            S 1 1.00
             0.0019245 1.0
            P 1 1.00
             0.0102 1.0
            D 1 1.00
             0.0136536 1.0
             F   1 1.00
                  1.461    1.0
             F   1 1.00
                  0.498    1.0
             G   1 1.00
                  1.218    1.0
            ****
            !
            ! Gd ... HPH Added S, P, D, and F diffuse functions using 0.3 exponent ratio.
            -Gd 0
            SDD
            S 1 1.00
             0.0071100 1.0
            P 1 1.00
             0.0240000 1.0
            D 1 1.00
             0.0311100 1.0
            F 1 1.00
             0.0856500 1.0
            ****
            -H  B  C  N  O  F  P  S  Cl 0
            aug-cc-pVTz
            ****
            
            -Sc  Ti  V  Cr  Mn  Fe  Co  Ni  Cu  Zn  Y  Zr  Nb  Mo  Ru  Rh  Pd  Ag  Cd  W  Os  Ir  Pt  Au  Gd  0
            SDD
 Initial command:
 /home/hhratchian/gaussian/gdv-20250101-j30+/gdv/local/l1.exe "/scratch/aaboutaka/1563058/Gau-3471887.inp" -scrdir="/scratch/aaboutaka/1563058/"
 Default is to use a total of  56 processors:
                               56 via shared-memory
                                1 via Linda
 Entering Link 1 = /home/hhratchian/gaussian/gdv-20250101-j30+/gdv/local/l1.exe PID=   3471888.
  
 Copyright (c) 1988-2024, Gaussian, Inc.  All Rights Reserved.
  
 This is the private, development version of
 the Gaussian(R) DV system of programs. It is based on
 the Gaussian(R) 16 system (copyright 2016, Gaussian, Inc.),
 the Gaussian(R) 09 system (copyright 2009, Gaussian, Inc.),
 the Gaussian(R) 03 system (copyright 2003, Gaussian, Inc.),
 the Gaussian(R) 98 system (copyright 1998, Gaussian, Inc.),
 the Gaussian(R) 94 system (copyright 1995, Gaussian, Inc.),
 the Gaussian 92(TM) system (copyright 1992, Gaussian, Inc.),
 the Gaussian 90(TM) system (copyright 1990, Gaussian, Inc.),
 the Gaussian 88(TM) system (copyright 1988, Gaussian, Inc.),
 the Gaussian 86(TM) system (copyright 1986, Carnegie Mellon
 University), and the Gaussian 82(TM) system (copyright 1983,
 Carnegie Mellon University). Gaussian is a federally registered
 trademark of Gaussian, Inc.
  
 This software contains proprietary and confidential information,
 including trade secrets, belonging to Gaussian, Inc.
  
 This software is provided under written license and may be
 used, copied, transmitted, or stored only in accord with that
 written license.
  
 The following legend is applicable only to US Government
 contracts under FAR:
  
                    RESTRICTED RIGHTS LEGEND
  
 Use, reproduction and disclosure by the US Government is
 subject to restrictions as set forth in subparagraphs (a)
 and (c) of the Commercial Computer Software - Restricted
 Rights clause in FAR 52.227-19.
  
 Gaussian, Inc.
 340 Quinnipiac St., Bldg. 40, Wallingford CT 06492
  
  
 ---------------------------------------------------------------
 Warning -- This program may not be used in any manner that
 competes with the business of Gaussian, Inc. or will provide
 assistance to any competitor of Gaussian, Inc.  The licensee
 of this program is prohibited from giving any competitor of
 Gaussian, Inc. access to this program.  By using this program,
 the user acknowledges that Gaussian, Inc. is engaged in the
 business of creating and licensing software in the field of
 computational chemistry and represents and warrants to the
 licensee that it is not a competitor of Gaussian, Inc. and that
 it will not use this program in any manner prohibited above.
 ---------------------------------------------------------------
  

 Cite this work as:
 Gaussian Development Version, Revision J.30+,
 M. J. Frisch, G. W. Trucks, G. Scalmani, J. R. Cheeseman, X. Li, 
 J. Bloino, B. G. Janesko, A. V. Marenich, J. Zheng, F. Lipparini, 
 A. Jenkins, A. Liu, H. Liu, H. B. Schlegel, G. E. Scuseria, 
 M. A. Robb, V. Barone, G. A. Petersson, H. Nakatsuji, B. Mennucci, 
 C. Adamo, N. Rega, M. Caricato, H. P. Hratchian, J. V. Ortiz, 
 F. Pawlowski, A. F. Izmaylov, H. Hu, C. Liao, J. L. Sonnenberg, 
 D. Williams-Young, F. Ding, R. Gomperts, F. Egidi, J. Goings, 
 B. Peng, A. Petrone, T. Henderson, D. Ranasinghe, V. G. Zakrzewski, 
 J. Gao, G. Zheng, W. Liang, M. Hada, M. Ehara, K. Toyota, R. Fukuda, 
 J. Hasegawa, M. Ishida, T. Nakajima, Y. Honda, O. Kitao, H. Nakai, 
 T. Vreven, K. Throssell, J. A. Montgomery, Jr., J. E. Peralta, 
 F. Ogliaro, M. J. Bearpark, J. J. Heyd, E. N. Brothers, K. N. Kudin, 
 V. N. Staroverov, T. A. Keith, R. Kobayashi, J. Normand, 
 K. Raghavachari, A. P. Rendell, J. C. Burant, S. S. Iyengar, 
 M. Cossi, J. M. Millam, M. Klene, R. Cammi, R. L. Martin, O. Farkas, 
 J. B. Foresman, and D. J. Fox, Gaussian, Inc., Wallingford CT, 2024.
 
 *******************************************
 Gaussian DV:  ES64L-GDVRevJ.30+ 18-Dec-2024
                  3-Aug-2025 
 *******************************************
 %Chk=H2O_B3LYP_genecp.chk
 ----------------------------------------------------------------------
 #P B3LYP/genecp SCF=(fermi,novaracc) Guess=Mix Stable=Opt scf=(qc,conv
 er=8)
 ----------------------------------------------------------------------
 1/37=210000000,38=1,172=1/1;
 2/12=2/2;
 3/5=7,11=2,16=1,17=8,25=1,30=1,74=-5/1,2,3;
 4/13=-1/1;
 5/5=2,6=8,8=3,22=13,38=1/8;
 6/7=2,8=2,9=2,10=2,28=1/1;
 8/6=1,10=90,11=11/1;
 9/8=-3,42=1,46=1/14;
 5/5=2,6=8,8=3,17=40,22=13,38=1/8(-2);
 6/7=2,8=2,9=2,10=2,28=1/1;
 99/5=1,9=1/99;
 Leave Link    1 at Sun Aug  3 21:43:00 2025, MaxMem=           0 cpu:               0.2 elap:               0.0
 (Enter /home/hhratchian/gaussian/gdv-20250101-j30+/gdv/local/l101.exe)
 
  Hrant - IAPOps =                         0
  Hrant - IAPOp1 =                         0
  Hrant - IAPOp2 =                         0
  Hrant - DoAP   =   F
 
 -------------------------------
 Initial Stability Check for H2O
 -------------------------------
 Symbolic Z-matrix:
 Charge =     0 Multiplicity =     1
 O                     0.        0.        0. 
 H                     0.7586    0.        0.50428 
 H                    -0.7586    0.        0.50428 
 
 ITRead=  0  0  0
 MicOpt= -1 -1 -1
 NAtoms=      3 NQM=        3 NQMF=       0 NMMI=      0 NMMIF=      0
                NMic=       0 NMicF=      0.
                    Isotopes and Nuclear Properties:
 (Nuclear quadrupole moments (NQMom) in fm**2, nuclear magnetic moments (NMagM)
  in nuclear magnetons)

  Atom         1           2           3
 IAtWgt=          16           1           1
 AtmWgt=  15.9949146   1.0078250   1.0078250
 NucSpn=           0           1           1
 AtZEff=   -0.000000   -0.000000   -0.000000
 NQMom=    0.0000000   0.0000000   0.0000000
 NMagM=    0.0000000   2.7928460   2.7928460
 AtZNuc=   8.0000000   1.0000000   1.0000000
 Leave Link  101 at Sun Aug  3 21:43:00 2025, MaxMem= 12348030976 cpu:               0.5 elap:               0.1
 (Enter /home/hhratchian/gaussian/gdv-20250101-j30+/gdv/l202.exe)
                          Input orientation:                          
 ---------------------------------------------------------------------
 Center     Atomic      Atomic             Coordinates (Angstroms)
 Number     Number       Type             X           Y           Z
 ---------------------------------------------------------------------
      1          8           0        0.000000    0.000000    0.000000
      2          1           0        0.758602    0.000000    0.504284
      3          1           0       -0.758602   -0.000000    0.504284
 ---------------------------------------------------------------------
                    Distance matrix (angstroms):
                    1          2          3
     1  O    0.000000
     2  H    0.910922   0.000000
     3  H    0.910922   1.517204   0.000000
 Stoichiometry    H2O
 Framework group  C2V[C2(O),SGV(H2)]
 Deg. of freedom     2
 Full point group                 C2V     NOp   4
 Largest Abelian subgroup         C2V     NOp   4
 Largest concise Abelian subgroup C2      NOp   2
                         Standard orientation:                         
 ---------------------------------------------------------------------
 Center     Atomic      Atomic             Coordinates (Angstroms)
 Number     Number       Type             X           Y           Z
 ---------------------------------------------------------------------
      1          8           0        0.000000    0.000000    0.100857
      2          1           0       -0.000000    0.758602   -0.403427
      3          1           0       -0.000000   -0.758602   -0.403427
 ---------------------------------------------------------------------
 Rotational constants (GHZ):        1110.1894251         435.6864908         312.8935057
 Leave Link  202 at Sun Aug  3 21:43:00 2025, MaxMem= 12348030976 cpu:               0.4 elap:               0.0
 (Enter /home/hhratchian/gaussian/gdv-20250101-j30+/gdv/local/l301.exe)
 General  basis read from cards:  (5D, 7F)
 Centers:       1      2      3
 aug-cc-pVTz
 ****
 ======================================================================================================
                                       Pseudopotential Parameters
 ======================================================================================================
  Center     Atomic      Valence      Angular      Power
  Number     Number     Electrons     Momentum     of R      Exponent        Coefficient   SO-Coeffient
 ======================================================================================================
    1          8
                                   No pseudopotential on this center.
    2          1
                                   No pseudopotential on this center.
    3          1
                                   No pseudopotential on this center.
 ======================================================================================================
 Ernie: Thresh=  0.10000D-02 Tol=  0.10000D-05 Strict=F.
 Ernie:  3 primitive shells out of 52 were deleted.
 There are    42 symmetry adapted cartesian basis functions of A1  symmetry.
 There are    12 symmetry adapted cartesian basis functions of A2  symmetry.
 There are    20 symmetry adapted cartesian basis functions of B1  symmetry.
 There are    31 symmetry adapted cartesian basis functions of B2  symmetry.
 There are    35 symmetry adapted basis functions of A1  symmetry.
 There are    12 symmetry adapted basis functions of A2  symmetry.
 There are    18 symmetry adapted basis functions of B1  symmetry.
 There are    27 symmetry adapted basis functions of B2  symmetry.
    92 basis functions,   126 primitive gaussians,   105 cartesian basis functions
     5 alpha electrons        5 beta electrons
       nuclear repulsion energy         9.6435792538 Hartrees.
 IExCor=      4002 DFT=T Ex+Corr=B3LYP ScaHFX=  0.200000
 ScaDFX=  0.800000  0.720000  1.000000  0.810000  1.000000  0.000000
 ScaDFX=  0.000000  0.000000  0.000000  0.000000  0.000000  0.000000
 Grid=UltraFine IRanWt=     -1 IRanGd=            0 ICorTp=0 IEDCtl=  2004
 NAtoms=    3 NActive=    3 NUniq=    2 SFac= 2.25D+00 NAtFMM=   60 NAOKFM=F Big=F
 Integral buffers will be    131072 words long.
 Raffenetti 2 integral format.
 Two-electron integral symmetry is turned on.
 Leave Link  301 at Sun Aug  3 21:43:00 2025, MaxMem= 12348030976 cpu:               0.2 elap:               0.1
 (Enter /home/hhratchian/gaussian/gdv-20250101-j30+/gdv/l302.exe)
 NPDir=0 NMtPBC=     1 NCelOv=     1 NCel=       1 NClECP=     1 NCelD=      1
         NCelK=      1 NCelE2=     1 NClLst=     1 CellRange=     0.0.
 One-electron integrals computed using PRISM.
 One-electron integral symmetry used in STVInt
   4 Symmetry operations used in ECPInt.
 ECPInt:  NShTT=     528 NPrTT=    1270 LenC2=     529 LenP2D=    1253.
 LDataN:  DoStor=T MaxTD1= 6 Len=  172
 NBasis=    92 RedAO= T EigKep=  3.31D-04  NBF=    35    12    18    27
 NBsUse=    92 1.00D-06 EigRej= -1.00D+00 NBFU=    35    12    18    27
 Precomputing XC quadrature grid using
 IXCGrd=   9 Grid=UltraFine IRanWt=          -1 IRanGd=           0 AccXCQ= 0.00D+00.
 Generated NRdTot=       0 NPtTot=       73544 NUsed=           0 NTot=          64
 NSgBfM=   105   105   105   105   105 MxSgAt=     3 MxSgA2=     3 SizInc=   0.000
 NMBTot=      981 MaxBatPerAtom=       87 MaxMicBPerAtom=      341 NBfPt=             6212220.
 Leave Link  302 at Sun Aug  3 21:43:00 2025, MaxMem= 12348030976 cpu:               4.8 elap:               0.2
 (Enter /home/hhratchian/gaussian/gdv-20250101-j30+/gdv/l303.exe)
 DipDrv:  MaxL=1.
 Leave Link  303 at Sun Aug  3 21:43:00 2025, MaxMem= 12348030976 cpu:               0.3 elap:               0.0
 (Enter /home/hhratchian/gaussian/gdv-20250101-j30+/gdv/l401.exe)
 ExpMin= 2.53D-02 ExpMax= 1.53D+04 ExpMxC= 5.22D+02 IAcc=3 Grid=UltraFine AccDes= 0.00D+00
 Harris functional with IExCor= 4002 and Grid=UltraFine diagonalized for initial guess.
 HarFok:  IExCor=    4002 AccDes= 0.00D+00 Grid=UltraFine IDoV= 1 UseB2=F ITyADJ=14 ICtDFT=  3500011
 FoFCou: FMM=F IPFlag=           0 FMFlag=      100000 FMFlg1=           0
         NFxFlg=           0 DoJE=T BraDBF=F KetDBF=T FulRan=T
         wScrn=  0.000000 ICntrl=       500 IOpCl=  0 I1Cent=   200000004 NGrid=           0
         NMat0=    1 NMatS0=      1 NMatT0=    0 NMatD0=    1 NMtDS0=    0 NMtDT0=    0
 Petite list used in FoFCou.
 Harris En= -76.4992385818354    
 JPrj=0 DoOrth=F DoCkMO=T.
 Mixing orbitals, IMix= 1 IMixAn=  0 NRI=1 NE=    5 Coef=  7.07106781D-01  7.07106781D-01
 Initial guess orbital symmetries:
       Occupied  (A1) (A1) (B2) (A1) (?A)
       Virtual   (?A) (B2) (A1) (B1) (A1) (B2) (B2) (A1) (A2) (A1)
                 (B1) (B2) (A1) (B2) (B2) (A1) (A1) (B1) (A2) (A1)
                 (A1) (B1) (B1) (B2) (A2) (B2) (A1) (B2) (A1) (B1)
                 (B2) (A1) (A2) (B2) (A2) (A1) (B1) (A1) (B2) (B2)
                 (A1) (B1) (A1) (A2) (A1) (B2) (B1) (A1) (B1) (B2)
                 (A1) (A2) (B2) (B2) (A1) (B1) (A2) (B2) (A1) (B1)
                 (A2) (A1) (B2) (B1) (A1) (B2) (B2) (A2) (A1) (B2)
                 (B1) (A1) (A1) (B2) (B1) (A1) (B1) (A1) (A2) (B1)
                 (A2) (B2) (A1) (B2) (A1) (B2) (A1)
 Leave Link  401 at Sun Aug  3 21:43:00 2025, MaxMem= 12348030976 cpu:               6.3 elap:               0.2
 (Enter /home/hhratchian/gaussian/gdv-20250101-j30+/gdv/l508.exe)
 Keep R1 ints in memory in symmetry-blocked form, NReq=61353384.
 FoFCou: FMM=F IPFlag=           0 FMFlag=           0 FMFlg1=           0
         NFxFlg=           0 DoJE=F BraDBF=F KetDBF=F FulRan=T
         wScrn=  0.000000 ICntrl=       600 IOpCl=  0 I1Cent=           0 NGrid=           0
         NMat0=    1 NMatS0=   4278 NMatT0=    0 NMatD0=    1 NMtDS0=    0 NMtDT0=    0
 Petite list used in FoFCou.
 Tight linear equation convergence will be used.
 RB3LYP wavefunction.
 Quadratic Convergence SCF Method.
 Line search only if initial step raises energy.
 Density matrix breaks symmetry, PCut= 1.00D-04
 Density matrix has no symmetry -- integrals replicated.
 Iteration   1 EE= -76.1192070732106                                    Grad=3.205D-01 Max rot=   11.8611 deg.
 Gradient too large for Newton-Raphson -- use scaled steepest descent instead.
 Alpha Gap=     0.040 HL deriv= 2.07D+00
     ILin= 1 X=0.000D+00 Y=-7.611920707321D+01 DE= 0.00D+00 F= -1.73D+00
     ILin= 2 X=3.000D-01 Y=-7.636612110205D+01 DE=-2.47D-01 F= -1.49D-01 OKLS=F
     ILin= 3 X=4.000D-01 Y=-7.637182639170D+01 DE=-2.53D-01 F=  2.50D-02
     ILin= 4 X=6.000D-01 Y=-7.631397323132D+01 DE=-1.95D-01 F=  7.07D-01
     An  expanding polynomial of degree  4 produced  0.3688
     Minimum is close to point  3 DX= -3.12D-02 DF= -1.33D-03 DXR=  8.47D-02 DFR=  5.25D-03 which will be used.
 Density matrix breaks symmetry, PCut= 1.00D-04
 Density matrix has no symmetry -- integrals replicated.
 Iteration   2 EE= -76.3718263917047     Delta-E=       -0.252619318494 Grad=5.033D-01 Max rot=    5.7958 deg.
 Gradient too large for Newton-Raphson -- use scaled steepest descent instead.
 Alpha Gap=     0.132 HL deriv= 3.15D-02
     ILin= 1 X=0.000D+00 Y=-7.637182639170D+01 DE= 0.00D+00 F= -5.94D-01
     ILin= 2 X=3.000D-01 Y=-7.645851396621D+01 DE=-8.67D-02 F=  3.31D-02 OKLS=F
     ILin= 3 X=5.000D-01 Y=-7.640596768654D+01 DE=-3.41D-02 F=  4.97D-01
     An  expanding polynomial of degree  3 produced  0.2809
     Minimum is close to point  2 DX= -1.91D-02 DF= -4.01D-04 DXR=  6.78D-02 DFR=  4.62D-03 which will be used.
 Density matrix breaks symmetry, PCut= 1.00D-04
 Density matrix has no symmetry -- integrals replicated.
 Iteration   3 EE= -76.4585139662077     Delta-E=       -0.086687574503 Grad=5.842D-02 Max rot=    0.7331 deg.
 Gradient too large for Newton-Raphson -- use scaled steepest descent instead.
 Alpha Gap=     0.320 HL deriv= 2.89D-02
     ILin= 1 X=0.000D+00 Y=-7.645851396621D+01 DE= 0.00D+00 F= -3.98D-03
     ILin= 2 X=4.000D-01 Y=-7.645956975260D+01 DE=-1.06D-03 F= -1.31D-03 OKLS=F
     ILin= 3 X=7.000D-01 Y=-7.645966927444D+01 DE=-1.16D-03 F=  6.42D-04
     Accept linear search using points  2 and  3.
     An  expanding polynomial of degree  3 produced  0.5471
 Density matrix breaks symmetry, PCut= 1.00D-04
 Density matrix has no symmetry -- integrals replicated.
 Iteration   4 EE= -76.4596918313137     Delta-E=       -0.001177865106 Grad=2.588D-02 Max rot=    0.3191 deg.
 Gradient too large for Newton-Raphson -- use scaled steepest descent instead.
 Alpha Gap=     0.308 HL deriv= 1.45D-02
     ILin= 1 X=0.000D+00 Y=-7.645969183131D+01 DE= 0.00D+00 F= -1.09D-03
     ILin= 2 X=4.000D-01 Y=-7.645997456436D+01 DE=-2.83D-04 F= -3.22D-04 OKLS=F
     ILin= 3 X=8.000D-01 Y=-7.645994817157D+01 DE=-2.56D-04 F=  4.56D-04
     An  expanding polynomial of degree  3 produced  0.5658
 Density matrix breaks symmetry, PCut= 1.00D-04
 Density matrix has no symmetry -- integrals replicated.
 Iteration   5 EE= -76.4600013562614     Delta-E=       -0.000309524948 Grad=1.397D-02 Max rot=    0.1457 deg.
 Gradient too large for Newton-Raphson -- use scaled steepest descent instead.
 Alpha Gap=     0.316 HL deriv= 7.57D-03
     ILin= 1 X=0.000D+00 Y=-7.646000135626D+01 DE= 0.00D+00 F= -3.30D-04
     ILin= 2 X=6.000D-01 Y=-7.646008371646D+01 DE=-8.24D-05 F=  5.51D-05 OKLS=T
     Accept linear search using points  1 and  2.
     An  expanding polynomial of degree  2 produced  0.4082
 Density matrix breaks symmetry, PCut= 1.00D-04
 Density matrix has no symmetry -- integrals replicated.
 Iteration   6 EE= -76.4600825163327     Delta-E=       -0.000081160071 Grad=5.790D-03 Max rot=    0.0882 deg.
 QCNR:  CnvC1=2.95D-09 CnvC2=2.95D-08
 LinEq1:  Iter=  0 NonCon=     1 RMS=3.06D-04 Max=5.50D-03 NDo=     1
 AX will form     1 AO Fock derivatives at one time.
 LinEq1:  Iter=  1 NonCon=     1 RMS=9.16D-05 Max=8.59D-04 NDo=     1
 LinEq1:  Iter=  2 NonCon=     1 RMS=1.41D-05 Max=1.68D-04 NDo=     1
 LinEq1:  Iter=  3 NonCon=     1 RMS=1.39D-06 Max=1.17D-05 NDo=     1
 LinEq1:  Iter=  4 NonCon=     1 RMS=2.77D-07 Max=1.53D-06 NDo=     1
 LinEq1:  Iter=  5 NonCon=     1 RMS=4.32D-08 Max=4.80D-07 NDo=     1
 LinEq1:  Iter=  6 NonCon=     0 RMS=2.19D-09 Max=1.56D-08 NDo=     1
 Linear equations converged to 2.950D-09 2.950D-08 after     6 iterations.
 Angle between quadratic step and gradient=  50.90 degrees.
     ILin= 1 X=0.000D+00 Y=-7.646008251633D+01 DE= 0.00D+00 F= -7.48D-05
     ILin= 2 X=1.000D+00 Y=-7.646011985255D+01 DE=-3.73D-05 F=  2.14D-07 OKLS=T
     Accept linear search using points  1 and  2.
     An  expanding polynomial of degree  2 produced  0.9972
     Minimum is close to point  2 DX= -2.84D-03 DF= -3.04D-10 DXR=  2.85D-03 DFR=  8.14D-06 which will be used.
 Iteration   7 EE= -76.4601198525541     Delta-E=       -0.000037336221 Grad=5.108D-05 Max rot=    0.0006 deg.
 QCNR:  CnvC1=5.11D-10 CnvC2=5.11D-09
 LinEq1:  Iter=  0 NonCon=     1 RMS=2.02D-06 Max=1.55D-05 NDo=     1
 LinEq1:  Iter=  1 NonCon=     1 RMS=1.18D-06 Max=2.07D-05 NDo=     1
 LinEq1:  Iter=  2 NonCon=     1 RMS=1.25D-07 Max=8.07D-07 NDo=     1
 LinEq1:  Iter=  3 NonCon=     1 RMS=2.49D-08 Max=3.03D-07 NDo=     1
 LinEq1:  Iter=  4 NonCon=     1 RMS=2.34D-09 Max=2.15D-08 NDo=     1
 LinEq1:  Iter=  5 NonCon=     0 RMS=1.20D-10 Max=1.29D-09 NDo=     1
 Linear equations converged to 5.108D-10 5.108D-09 after     5 iterations.
 Angle between quadratic step and gradient=  47.67 degrees.
     ILin= 1 X=0.000D+00 Y=-7.646011985255D+01 DE= 0.00D+00 F= -2.34D-09
     ILin= 2 X=1.000D+00 Y=-7.646011985372D+01 DE=-1.17D-09
 Iteration   8 EE= -76.4601198537236     Delta-E=       -0.000000001170 Grad=4.322D-09 Max rot=    0.0000 deg.
 Rotation gradient small -- convergence achieved.
 Orbital symmetries in SymMO:
    1=1    2=1    3=4    4=1    5=3    6=1    7=4    8=1    9=3   10=1
   11=4   12=4   13=1   14=2   15=3   16=1   17=4   18=1   19=4   20=4
   21=1   22=1   23=3   24=2   25=1   26=3   27=1   28=3   29=4   30=2
   31=4   32=1   33=1   34=4   35=3   36=4   37=1   38=2   39=4   40=2
   41=1   42=3   43=1   44=4   45=4   46=1   47=3   48=1   49=2   50=1
   51=3   52=4   53=1   54=4   55=3   56=1   57=2   58=4   59=4   60=1
   61=3   62=2   63=4   64=1   65=3   66=2   67=1   68=3   69=4   70=1
   71=4   72=4   73=2   74=4   75=1   76=3   77=1   78=1   79=4   80=3
   81=1   82=3   83=1   84=2   85=3   86=2   87=4   88=1   89=4   90=1
   91=4   92=1
 SCF Done:  E(RB3LYP) =  -76.4601198537     a.u. after    8 cycles
            Convg  =    0.4322D-08                    27 Fock formations.
              S**2 =  0.0000                  -V/T =  2.0033
 Leave Link  508 at Sun Aug  3 21:43:01 2025, MaxMem= 12348030976 cpu:              44.7 elap:               1.0
 (Enter /home/hhratchian/gaussian/gdv-20250101-j30+/gdv/l601.exe)
 Copying SCF densities to generalized density rwf, IOpCl= 0 IROHF=0.
 
 **********************************************************************
 
               Population analysis using the SCF Density.
 
 **********************************************************************
 
 Orbital symmetries:
       Occupied  (A1) (A1) (B2) (A1) (B1)
       Virtual   (A1) (B2) (A1) (B1) (A1) (B2) (B2) (A1) (A2) (B1)
                 (A1) (B2) (A1) (B2) (B2) (A1) (A1) (B1) (A2) (A1)
                 (B1) (A1) (B1) (B2) (A2) (B2) (A1) (A1) (B2) (B1)
                 (B2) (A1) (A2) (B2) (A2) (A1) (B1) (A1) (B2) (B2)
                 (A1) (B1) (A1) (A2) (A1) (B1) (B2) (A1) (B2) (B1)
                 (A1) (A2) (B2) (B2) (A1) (B1) (A2) (B2) (A1) (B1)
                 (A2) (A1) (B1) (B2) (A1) (B2) (B2) (A2) (B2) (A1)
                 (B1) (A1) (A1) (B2) (B1) (A1) (B1) (A1) (A2) (B1)
                 (A2) (B2) (A1) (B2) (A1) (B2) (A1)
 The electronic state is 1-A1.
 Alpha  occ. eigenvalues --      -19.12950      -1.03886      -0.57559      -0.38971      -0.32715
 Alpha virt. eigenvalues --       -0.02046       0.02041       0.07898       0.09335       0.10332
 Alpha virt. eigenvalues --        0.11993       0.15786       0.17088       0.19077       0.23089
 Alpha virt. eigenvalues --        0.23372       0.30827       0.34257       0.36380       0.47602
 Alpha virt. eigenvalues --        0.51556       0.57390       0.58428       0.58653       0.69604
 Alpha virt. eigenvalues --        0.71477       0.72342       0.76779       0.77570       0.78785
 Alpha virt. eigenvalues --        0.80563       0.84239       0.89602       0.90328       0.92543
 Alpha virt. eigenvalues --        0.99941       1.04517       1.04911       1.09250       1.34619
 Alpha virt. eigenvalues --        1.38410       1.43548       1.54838       1.58999       1.82952
 Alpha virt. eigenvalues --        1.89712       1.98844       2.04890       2.06993       2.13719
 Alpha virt. eigenvalues --        2.15673       2.16106       2.20405       2.41628       2.42440
 Alpha virt. eigenvalues --        2.53996       2.63203       2.65655       3.37676       3.51145
 Alpha virt. eigenvalues --        3.72693       3.73797       3.96791       3.98866       4.05968
 Alpha virt. eigenvalues --        4.09914       4.13754       4.15650       4.16006       4.32580
 Alpha virt. eigenvalues --        4.48273       4.88675       4.95707       5.09687       5.10193
 Alpha virt. eigenvalues --        5.22554       5.41638       5.77895       6.07018       6.25393
 Alpha virt. eigenvalues --        6.42943       6.62410       6.73064       6.80413       6.89268
 Alpha virt. eigenvalues --        6.97336       7.11447       7.23097       7.54677       7.64140
 Alpha virt. eigenvalues --        8.43989      16.65659
          Condensed to atoms (all electrons):
               1          2          3
     1  O    7.663520   0.289645   0.289645
     2  H    0.289645   0.621944  -0.032993
     3  H    0.289645  -0.032993   0.621944
 Mulliken charges:
               1
     1  O   -0.242809
     2  H    0.121405
     3  H    0.121405
 Sum of Mulliken charges=  -0.00000
 Mulliken charges with hydrogens summed into heavy atoms:
               1
     1  O   -0.000000
 Electronic spatial extent (au):  <R**2>=             19.4256
 Charge=              0.0000 electrons
 Dipole moment (field-independent basis, Debye):
    X=             -0.0000    Y=             -0.0000    Z=             -1.7023  Tot=              1.7023
 Quadrupole moment (field-independent basis, Debye-Ang):
   XX=             -7.6934   YY=             -4.2771   ZZ=             -6.6749
   XY=              0.0000   XZ=              0.0000   YZ=             -0.0000
 Traceless Quadrupole moment (field-independent basis, Debye-Ang):
   XX=             -1.4783   YY=              1.9381   ZZ=             -0.4598
   XY=              0.0000   XZ=              0.0000   YZ=             -0.0000
 Octapole moment (field-independent basis, Debye-Ang**2):
  XXX=              0.0000  YYY=              0.0000  ZZZ=             -0.8937  XYY=             -0.0000
  XXY=             -0.0000  XXZ=             -0.2200  XZZ=              0.0000  YZZ=              0.0000
  YYZ=             -1.1714  XYZ=             -0.0000
 Hexadecapole moment (field-independent basis, Debye-Ang**3):
 XXXX=             -7.6380 YYYY=             -6.1830 ZZZZ=             -7.7562 XXXY=             -0.0000
 XXXZ=             -0.0000 YYYX=             -0.0000 YYYZ=             -0.0000 ZZZX=             -0.0000
 ZZZY=             -0.0000 XXYY=             -2.6471 XXZZ=             -2.5914 YYZZ=             -2.1858
 XXYZ=              0.0000 YYXZ=              0.0000 ZZXY=             -0.0000
 N-N=           9.643579 E-N=        -200.050439  KE=          76.209428
 Symmetry A1   KE=          67.913782
 Symmetry A2   KE=           0.000000
 Symmetry B1   KE=           4.509921
 Symmetry B2   KE=           3.785725
 No NMR shielding tensors so no spin-rotation constants.
 Leave Link  601 at Sun Aug  3 21:43:02 2025, MaxMem= 12348030976 cpu:               5.0 elap:               0.1
 (Enter /home/hhratchian/gaussian/gdv-20250101-j30+/gdv/l801.exe)
 DoSCS=F DFT=T ScalE2(SS,OS)=  1.000000  1.000000
 Range of M.O.s used for correlation:     1    92
 NBasis=    92 NAE=     5 NBE=     5 NFC=     0 NFV=     0
 NROrb=     92 NOA=     5 NOB=     5 NVA=    87 NVB=    87

 **** Warning!!: The largest alpha MO coefficient is  0.16460020D+02

 Leave Link  801 at Sun Aug  3 21:43:02 2025, MaxMem= 12348030976 cpu:               0.2 elap:               0.0
 (Enter /home/hhratchian/gaussian/gdv-20250101-j30+/gdv/l914.exe)
 RHF ground state
 Doing stability rather than CIS.
 DoSCS=F DFT=T ScalE2(SS,OS)=  1.000000  1.000000
   ScalD2(USS,UOS,TSS,TOS,w)=  1.000000  1.000000  1.000000  1.000000  1.000000
 Keep R1 and R2 ints in memory in symmetry-blocked form, NReq=124134203.
 FoFCou: FMM=F IPFlag=           0 FMFlag=           0 FMFlg1=           0
         NFxFlg=           0 DoJE=F BraDBF=F KetDBF=F FulRan=T
         wScrn=  0.000000 ICntrl=       600 IOpCl=  0 I1Cent=           0 NGrid=           0
         NMat0=    1 NMatS0=   4278 NMatT0=    0 NMatD0=    1 NMtDS0=    0 NMtDT0=    0
 Petite list used in FoFCou.
 MDV= 12348030976 DFT=T IDoStb=1 Mixed=T DoRPA=F DoScal=F NonHer=F
 Making orbital integer symmetry assigments:
 Orbital symmetries:
       Occupied  (A1) (A1) (B2) (A1) (B1)
       Virtual   (A1) (B2) (A1) (B1) (A1) (B2) (B2) (A1) (A2) (B1)
                 (A1) (B2) (A1) (B2) (B2) (A1) (A1) (B1) (A2) (A1)
                 (B1) (A1) (B1) (B2) (A2) (B2) (A1) (A1) (B2) (B1)
                 (B2) (A1) (A2) (B2) (A2) (A1) (B1) (A1) (B2) (B2)
                 (A1) (B1) (A1) (A2) (A1) (B1) (B2) (A1) (B2) (B1)
                 (A1) (A2) (B2) (B2) (A1) (B1) (A2) (B2) (A1) (B1)
                 (A2) (A1) (B1) (B2) (A1) (B2) (B2) (A2) (B2) (A1)
                 (B1) (A1) (A1) (B2) (B1) (A1) (B1) (A1) (A2) (B1)
                 (A2) (B2) (A1) (B2) (A1) (B2) (A1)
 The electronic state is 1-A1.
    24 initial guesses have been made.
 Convergence on wavefunction:    0.001000000000000
 Davidson Disk Diagonalization:  ConvIn= 1.00D-03 SkipCon=T Conv= 1.00D-03.
 Max sub-space:  1740 initial roots:    24 roots to seek:     1 dimension of matrix:          870
 Iteration     1 Dimension    24 NMult     0 NNew     24
 CISAX will form    24 AO SS matrices at one time.
 NMat=    24 NSing=    12 JSym2X=-1.
 New state      1 was old state      2
 Excitation Energies [eV] at current iteration:
 Root      1 :     6.781728245808300
 Root      2 :     7.298674490780738
 Root      3 :     8.385460542496171
 Root      4 :     8.462809831429274
 Root      5 :     8.482905918083494
 Root      6 :     9.067684466736347
 Root      7 :     9.696749510046288
 Root      8 :     9.794815451634403
 Root      9 :     9.926485291559398
 Root     10 :    10.195326170476473
 Root     11 :    10.278607548406013
 Root     12 :    10.338706237980531
 Root     13 :    10.758805676989077
 Root     14 :    10.790353468469092
 Root     15 :    10.824611447752554
 Root     16 :    11.029561118818402
 Root     17 :    11.310088130011849
 Root     18 :    11.767897821255643
 Root     19 :    11.838080243154790
 Root     20 :    11.857218400786223
 Root     21 :    11.930239938574598
 Root     22 :    12.005269983557351
 Root     23 :    12.380759598560887
 Root     24 :    14.837843202443224
 Iteration     2 Dimension    48 NMult    24 NNew     24
 CISAX will form    24 AO SS matrices at one time.
 NMat=    24 NSing=    12 JSym2X=-1.
 Root      1 not converged, maximum delta is    0.066871473781162
 Excitation Energies [eV] at current iteration:
 Root      1 :     6.628566750246875   Change is   -0.153161495561425
 Root      2 :     7.265834095211200   Change is   -0.032840395569538
 Root      3 :     8.283382408648718   Change is   -0.199523509434776
 Root      4 :     8.291335113762546   Change is   -0.094125428733624
 Root      5 :     8.453088965298329   Change is   -0.009720866130944
 Root      6 :     9.001636523434367   Change is   -0.066047943301979
 Root      7 :     9.355868617823837   Change is   -0.340880892222450
 Root      8 :     9.639760226058520   Change is   -0.155055225575883
 Root      9 :     9.894335189005147   Change is   -0.032150102554252
 Root     10 :     9.922769965157819   Change is   -0.272556205318654
 Root     11 :    10.209751756269473   Change is   -0.128954481711060
 Root     12 :    10.228249567474528   Change is   -0.050357980931485
 Root     13 :    10.541345656943474   Change is   -0.283265790809082
 Root     14 :    10.577094652571271   Change is   -0.213258815897822
 Root     15 :    10.682137702638775   Change is   -0.076667974350303
 Root     16 :    10.987552800453562   Change is   -0.042008318364838
 Root     17 :    10.995602219137073   Change is   -0.314485910874776
 Root     18 :    11.643364597592873   Change is   -0.124533223662768
 Root     19 :    11.799293209653825   Change is   -0.057925191132398
 Root     20 :    11.814425466029995   Change is   -0.023654777124796
 Root     21 :    11.854498463324592   Change is   -0.150771520232759
 Root     22 :    11.890478356153656   Change is   -0.039761582420942
 Root     23 :    12.095384387731356   Change is   -0.285375210829532
 Root     24 :    12.513034426438091   Change is   -2.324808776005133
 Iteration     3 Dimension    54 NMult    48 NNew      6
 CISAX will form     6 AO SS matrices at one time.
 NMat=     6 NSing=     3 JSym2X=-1.
 Root      1 not converged, maximum delta is    0.001411651996402
 Excitation Energies [eV] at current iteration:
 Root      1 :     6.628141700394663   Change is   -0.000425049852212
 Root      2 :     7.265726169027657   Change is   -0.000107926183544
 Root      3 :     8.275470841638429   Change is   -0.007911567010289
 Root      4 :     8.291060878043350   Change is   -0.000274235719197
 Root      5 :     8.453022668153874   Change is   -0.000066297144456
 Root      6 :     8.999371481441004   Change is   -0.002265041993364
 Iteration     4 Dimension    60 NMult    54 NNew      6
 CISAX will form     6 AO SS matrices at one time.
 NMat=     6 NSing=     3 JSym2X=-1.
 Root      1 has converged.
 Excitation Energies [eV] at current iteration:
 Root      1 :     6.628139934733656   Change is   -0.000001765661007
 Root      2 :     7.265725315951705   Change is   -0.000000853075952
 Root      3 :     8.275264959024875   Change is   -0.000205882613554
 Root      4 :     8.291060005392387   Change is   -0.000000872650963
 Root      5 :     8.453022534639564   Change is   -0.000000133514310
 Root      6 :     8.999314519202814   Change is   -0.000056962238190
 Convergence achieved on expansion vectors.
 1PDM for each excited state written to RWF  633
 Ground to excited state transition densities written to RWF  633

 ***********************************************************************
 Stability analysis using <AA,BB:AA,BB> singles matrix:
 ***********************************************************************

 Eigenvectors of the stability matrix:
 
 Eigenvector   1:      Triplet-B1   Eigenvalue= 0.2435797  <S**2>=2.000
       5 ->  6         0.68084
       5 ->  8        -0.13612
       5 -> 10        -0.10762
 The wavefunction is stable under the perturbations considered.
 Leave Link  914 at Sun Aug  3 21:43:04 2025, MaxMem= 12348030976 cpu:             101.1 elap:               2.0
 (Enter /home/hhratchian/gaussian/gdv-20250101-j30+/gdv/l508.exe)
 The wavefunction is already stable.
 Leave Link  508 at Sun Aug  3 21:43:04 2025, MaxMem= 12348030976 cpu:               0.1 elap:               0.0
 (Enter /home/hhratchian/gaussian/gdv-20250101-j30+/gdv/l601.exe)
 Copying SCF densities to generalized density rwf, IOpCl= 0 IROHF=0.
 
 **********************************************************************
 
               Population analysis using the SCF Density.
 
 **********************************************************************
 
 Orbital symmetries:
       Occupied  (A1) (A1) (B2) (A1) (B1)
       Virtual   (A1) (B2) (A1) (B1) (A1) (B2) (B2) (A1) (A2) (B1)
                 (A1) (B2) (A1) (B2) (B2) (A1) (A1) (B1) (A2) (A1)
                 (B1) (A1) (B1) (B2) (A2) (B2) (A1) (A1) (B2) (B1)
                 (B2) (A1) (A2) (B2) (A2) (A1) (B1) (A1) (B2) (B2)
                 (A1) (B1) (A1) (A2) (A1) (B1) (B2) (A1) (B2) (B1)
                 (A1) (A2) (B2) (B2) (A1) (B1) (A2) (B2) (A1) (B1)
                 (A2) (A1) (B1) (B2) (A1) (B2) (B2) (A2) (B2) (A1)
                 (B1) (A1) (A1) (B2) (B1) (A1) (B1) (A1) (A2) (B1)
                 (A2) (B2) (A1) (B2) (A1) (B2) (A1)
 The electronic state is 1-A1.
 Alpha  occ. eigenvalues --      -19.12950      -1.03886      -0.57559      -0.38971      -0.32715
 Alpha virt. eigenvalues --       -0.02046       0.02041       0.07898       0.09335       0.10332
 Alpha virt. eigenvalues --        0.11993       0.15786       0.17088       0.19077       0.23089
 Alpha virt. eigenvalues --        0.23372       0.30827       0.34257       0.36380       0.47602
 Alpha virt. eigenvalues --        0.51556       0.57390       0.58428       0.58653       0.69604
 Alpha virt. eigenvalues --        0.71477       0.72342       0.76779       0.77570       0.78785
 Alpha virt. eigenvalues --        0.80563       0.84239       0.89602       0.90328       0.92543
 Alpha virt. eigenvalues --        0.99941       1.04517       1.04911       1.09250       1.34619
 Alpha virt. eigenvalues --        1.38410       1.43548       1.54838       1.58999       1.82952
 Alpha virt. eigenvalues --        1.89712       1.98844       2.04890       2.06993       2.13719
 Alpha virt. eigenvalues --        2.15673       2.16106       2.20405       2.41628       2.42440
 Alpha virt. eigenvalues --        2.53996       2.63203       2.65655       3.37676       3.51145
 Alpha virt. eigenvalues --        3.72693       3.73797       3.96791       3.98866       4.05968
 Alpha virt. eigenvalues --        4.09914       4.13754       4.15650       4.16006       4.32580
 Alpha virt. eigenvalues --        4.48273       4.88675       4.95707       5.09687       5.10193
 Alpha virt. eigenvalues --        5.22554       5.41638       5.77895       6.07018       6.25393
 Alpha virt. eigenvalues --        6.42943       6.62410       6.73064       6.80413       6.89268
 Alpha virt. eigenvalues --        6.97336       7.11447       7.23097       7.54677       7.64140
 Alpha virt. eigenvalues --        8.43989      16.65659
          Condensed to atoms (all electrons):
               1          2          3
     1  O    7.663520   0.289645   0.289645
     2  H    0.289645   0.621944  -0.032993
     3  H    0.289645  -0.032993   0.621944
 Mulliken charges:
               1
     1  O   -0.242809
     2  H    0.121405
     3  H    0.121405
 Sum of Mulliken charges=  -0.00000
 Mulliken charges with hydrogens summed into heavy atoms:
               1
     1  O   -0.000000
 Electronic spatial extent (au):  <R**2>=             19.4256
 Charge=              0.0000 electrons
 Dipole moment (field-independent basis, Debye):
    X=             -0.0000    Y=             -0.0000    Z=             -1.7023  Tot=              1.7023
 Quadrupole moment (field-independent basis, Debye-Ang):
   XX=             -7.6934   YY=             -4.2771   ZZ=             -6.6749
   XY=              0.0000   XZ=              0.0000   YZ=             -0.0000
 Traceless Quadrupole moment (field-independent basis, Debye-Ang):
   XX=             -1.4783   YY=              1.9381   ZZ=             -0.4598
   XY=              0.0000   XZ=              0.0000   YZ=             -0.0000
 Octapole moment (field-independent basis, Debye-Ang**2):
  XXX=              0.0000  YYY=              0.0000  ZZZ=             -0.8937  XYY=             -0.0000
  XXY=             -0.0000  XXZ=             -0.2200  XZZ=              0.0000  YZZ=              0.0000
  YYZ=             -1.1714  XYZ=             -0.0000
 Hexadecapole moment (field-independent basis, Debye-Ang**3):
 XXXX=             -7.6380 YYYY=             -6.1830 ZZZZ=             -7.7562 XXXY=             -0.0000
 XXXZ=             -0.0000 YYYX=             -0.0000 YYYZ=             -0.0000 ZZZX=             -0.0000
 ZZZY=             -0.0000 XXYY=             -2.6471 XXZZ=             -2.5914 YYZZ=             -2.1858
 XXYZ=              0.0000 YYXZ=              0.0000 ZZXY=             -0.0000
 N-N=           9.643579 E-N=        -200.050439  KE=          76.209428
 Symmetry A1   KE=          67.913782
 Symmetry A2   KE=           0.000000
 Symmetry B1   KE=           4.509921
 Symmetry B2   KE=           3.785725
 No NMR shielding tensors so no spin-rotation constants.
 Leave Link  601 at Sun Aug  3 21:43:04 2025, MaxMem= 12348030976 cpu:               5.8 elap:               0.2
 (Enter /home/hhratchian/gaussian/gdv-20250101-j30+/gdv/local/l9999.exe)
 Unable to Open any file for archive entry.
 1\1\GINC-GNODE014\Stability\RB3LYP\GenECP\H2O1\AABOUTAKA\03-Aug-2025\0
 \\#P B3LYP/genecp SCF=(fermi,novaracc) Guess=Mix Stable=Opt scf=(qc,co
 nver=8)\\Initial Stability Check for H2O\\0,1\O,0,0.,0.,0.\H,0,0.75860
 2,0.,0.504284\H,0,-0.758602,0.,0.504284\\Version=ES64L-GDVRevJ.30+\Sta
 te=1-A1\HF=-76.4601199\RMSD=1.465e-10\Dipole=0.,0.,0.6697526\Quadrupol
 e=1.4408962,-1.0990641,-0.3418321,0.,0.,0.\PG=C02V [C2(O1),SGV(H2)]\\@
 The archive entry for this job was punched.


 ... SUBJECTS WHICH DISCLOSE THEIR FULL POWER, MEANING AND BEAUTY AS SOON
 AS THEY ARE PRESENTED TO THE MIND HAVE VERY LITTLE OF THOSE QUALITIES
 TO DISCLOSE.
                           -- CHARLES DUTTON (1882)
 Job cpu time:       0 days  0 hours  2 minutes 50.5 seconds.
 Elapsed time:       0 days  0 hours  0 minutes  4.0 seconds.
 File lengths (MBytes):  RWF=     92 Int=      0 D2E=      0 Chk=      3 Scr=      2
 Normal termination of Gaussian DV at Sun Aug  3 21:43:04 2025.
 Initial command:
 /home/hhratchian/gaussian/gdv-20250101-j30+/gdv/local/l1.exe "/scratch/aaboutaka/1563058/Gau-3471887.inp" -scrdir="/scratch/aaboutaka/1563058/"
 Default is to use a total of  56 processors:
                               56 via shared-memory
                                1 via Linda
 Entering Link 1 = /home/hhratchian/gaussian/gdv-20250101-j30+/gdv/local/l1.exe PID=   3472664.
  
 Copyright (c) 1988-2024, Gaussian, Inc.  All Rights Reserved.
  
 This is the private, development version of
 the Gaussian(R) DV system of programs. It is based on
 the Gaussian(R) 16 system (copyright 2016, Gaussian, Inc.),
 the Gaussian(R) 09 system (copyright 2009, Gaussian, Inc.),
 the Gaussian(R) 03 system (copyright 2003, Gaussian, Inc.),
 the Gaussian(R) 98 system (copyright 1998, Gaussian, Inc.),
 the Gaussian(R) 94 system (copyright 1995, Gaussian, Inc.),
 the Gaussian 92(TM) system (copyright 1992, Gaussian, Inc.),
 the Gaussian 90(TM) system (copyright 1990, Gaussian, Inc.),
 the Gaussian 88(TM) system (copyright 1988, Gaussian, Inc.),
 the Gaussian 86(TM) system (copyright 1986, Carnegie Mellon
 University), and the Gaussian 82(TM) system (copyright 1983,
 Carnegie Mellon University). Gaussian is a federally registered
 trademark of Gaussian, Inc.
  
 This software contains proprietary and confidential information,
 including trade secrets, belonging to Gaussian, Inc.
  
 This software is provided under written license and may be
 used, copied, transmitted, or stored only in accord with that
 written license.
  
 The following legend is applicable only to US Government
 contracts under FAR:
  
                    RESTRICTED RIGHTS LEGEND
  
 Use, reproduction and disclosure by the US Government is
 subject to restrictions as set forth in subparagraphs (a)
 and (c) of the Commercial Computer Software - Restricted
 Rights clause in FAR 52.227-19.
  
 Gaussian, Inc.
 340 Quinnipiac St., Bldg. 40, Wallingford CT 06492
  
  
 ---------------------------------------------------------------
 Warning -- This program may not be used in any manner that
 competes with the business of Gaussian, Inc. or will provide
 assistance to any competitor of Gaussian, Inc.  The licensee
 of this program is prohibited from giving any competitor of
 Gaussian, Inc. access to this program.  By using this program,
 the user acknowledges that Gaussian, Inc. is engaged in the
 business of creating and licensing software in the field of
 computational chemistry and represents and warrants to the
 licensee that it is not a competitor of Gaussian, Inc. and that
 it will not use this program in any manner prohibited above.
 ---------------------------------------------------------------
  

 Cite this work as:
 Gaussian Development Version, Revision J.30+,
 M. J. Frisch, G. W. Trucks, G. Scalmani, J. R. Cheeseman, X. Li, 
 J. Bloino, B. G. Janesko, A. V. Marenich, J. Zheng, F. Lipparini, 
 A. Jenkins, A. Liu, H. Liu, H. B. Schlegel, G. E. Scuseria, 
 M. A. Robb, V. Barone, G. A. Petersson, H. Nakatsuji, B. Mennucci, 
 C. Adamo, N. Rega, M. Caricato, H. P. Hratchian, J. V. Ortiz, 
 F. Pawlowski, A. F. Izmaylov, H. Hu, C. Liao, J. L. Sonnenberg, 
 D. Williams-Young, F. Ding, R. Gomperts, F. Egidi, J. Goings, 
 B. Peng, A. Petrone, T. Henderson, D. Ranasinghe, V. G. Zakrzewski, 
 J. Gao, G. Zheng, W. Liang, M. Hada, M. Ehara, K. Toyota, R. Fukuda, 
 J. Hasegawa, M. Ishida, T. Nakajima, Y. Honda, O. Kitao, H. Nakai, 
 T. Vreven, K. Throssell, J. A. Montgomery, Jr., J. E. Peralta, 
 F. Ogliaro, M. J. Bearpark, J. J. Heyd, E. N. Brothers, K. N. Kudin, 
 V. N. Staroverov, T. A. Keith, R. Kobayashi, J. Normand, 
 K. Raghavachari, A. P. Rendell, J. C. Burant, S. S. Iyengar, 
 M. Cossi, J. M. Millam, M. Klene, R. Cammi, R. L. Martin, O. Farkas, 
 J. B. Foresman, and D. J. Fox, Gaussian, Inc., Wallingford CT, 2024.
 
 *******************************************
 Gaussian DV:  ES64L-GDVRevJ.30+ 18-Dec-2024
                  3-Aug-2025 
 *******************************************
 %Chk=H2O_B3LYP_genecp.chk
 ----------------------------------------------------------------------
 #P B3LYP chkbasis Geom=AllCheck Guess=Read Opt Freq SCF=(fermi, novara
 cc) int=superfinegrid scf=(qc,conver=8)
 ----------------------------------------------------------------------
 1/18=20,19=15,26=5,29=7,38=1/1,3;
 2/9=110,12=2/2;
 3/5=7,6=2,11=2,14=-4,25=1,30=1,67=1,71=1,74=-5,75=-7,116=-2/1,2,3;
 4/5=1/1;
 5/5=2,6=8,8=3,22=13,38=6/8;
 6/7=2,8=2,9=2,10=2,28=1/1;
 7//1,2,3,16;
 1/18=20,19=15,26=5/3(2);
 2/9=110/2;
 99//99;
 2/9=110/2;
 3/5=7,6=1,11=2,14=-2,25=1,30=1,71=1,74=-5,75=-7,82=7,187=7/1,2,3;
 4/5=5,16=3,69=1/1;
 5/5=2,6=8,8=3,22=13,38=1/8;
 7//1,2,3,16;
 1/18=20,19=15,26=5/3(-5);
 2/9=110/2;
 6/7=2,8=2,9=2,10=2,19=2,28=1/1;
 99/9=1/99;
 Leave Link    1 at Sun Aug  3 21:43:04 2025, MaxMem=           0 cpu:               0.2 elap:               0.0
 (Enter /home/hhratchian/gaussian/gdv-20250101-j30+/gdv/local/l101.exe)
 
  Hrant - IAPOps =                         0
  Hrant - IAPOp1 =                         0
  Hrant - IAPOp2 =                         0
  Hrant - DoAP   =   F
 
 Structure from the checkpoint file:  "H2O_B3LYP_genecp.chk"
 -------------------------------
 Initial Stability Check for H2O
 -------------------------------
 Charge =     0 Multiplicity =     1
 Z-Matrix found in chk file.
 O,0,0.,0.,0.
 H,0,0.758602,0.,0.504284
 H,0,-0.758602,0.,0.504284
 
 Recover connectivity data from disk.
 Initializing the GIC definitions file.
 ITRead=  0  0  0
 MicOpt= -1 -1 -1
 NAtoms=      3 NQM=        3 NQMF=       0 NMMI=      0 NMMIF=      0
                NMic=       0 NMicF=      0.
                    Isotopes and Nuclear Properties:
 (Nuclear quadrupole moments (NQMom) in fm**2, nuclear magnetic moments (NMagM)
  in nuclear magnetons)

  Atom         1           2           3
 IAtWgt=          16           1           1
 AtmWgt=  15.9949146   1.0078250   1.0078250
 NucSpn=           0           1           1
 AtZEff=    5.600000    1.000000    1.000000
 NQMom=    0.0000000   0.0000000   0.0000000
 NMagM=    0.0000000   2.7928460   2.7928460
 AtZNuc=   8.0000000   1.0000000   1.0000000
 Leave Link  101 at Sun Aug  3 21:43:08 2025, MaxMem= 12348030976 cpu:               4.5 elap:               4.2
 (Enter /home/hhratchian/gaussian/gdv-20250101-j30+/gdv/l103.exe)

 GradGradGradGradGradGradGradGradGradGradGradGradGradGradGradGradGradGrad
 Berny optimization.
 Initialization pass.
                           ----------------------------
                           !    Initial Parameters    !
                           ! (Angstroms and Degrees)  !
 --------------------------                            --------------------------
 ! Name  Definition              Value          Derivative Info.                !
 --------------------------------------------------------------------------------
 ! R1    R(1,2)                  0.9109         estimate D2E/DX2                !
 ! R2    R(1,3)                  0.9109         estimate D2E/DX2                !
 ! A1    A(2,1,3)              112.7717         estimate D2E/DX2                !
 --------------------------------------------------------------------------------
 Trust Radius=3.00D-01 FncErr=1.00D-07 GrdErr=1.00D-07 EigMax=2.50D+02 EigMin=1.00D-04
 Number of steps in this run=     20 maximum allowed number of steps=    100.
 GradGradGradGradGradGradGradGradGradGradGradGradGradGradGradGradGradGrad

 Leave Link  103 at Sun Aug  3 21:43:08 2025, MaxMem= 12348030976 cpu:               0.1 elap:               0.0
 (Enter /home/hhratchian/gaussian/gdv-20250101-j30+/gdv/l202.exe)
                          Input orientation:                          
 ---------------------------------------------------------------------
 Center     Atomic      Atomic             Coordinates (Angstroms)
 Number     Number       Type             X           Y           Z
 ---------------------------------------------------------------------
      1          8           0       -0.000000   -0.000000    0.000000
      2          1           0        0.758602    0.000000    0.504284
      3          1           0       -0.758602   -0.000000    0.504284
 ---------------------------------------------------------------------
                    Distance matrix (angstroms):
                    1          2          3
     1  O    0.000000
     2  H    0.910922   0.000000
     3  H    0.910922   1.517204   0.000000
 Stoichiometry    H2O
 Framework group  C2V[C2(O),SGV(H2)]
 Deg. of freedom     2
 Full point group                 C2V     NOp   4
 RotChk:  IX=0 Diff= 6.38D-16
 Largest Abelian subgroup         C2V     NOp   4
 Largest concise Abelian subgroup C2      NOp   2
                         Standard orientation:                         
 ---------------------------------------------------------------------
 Center     Atomic      Atomic             Coordinates (Angstroms)
 Number     Number       Type             X           Y           Z
 ---------------------------------------------------------------------
      1          8           0       -0.000000   -0.000000    0.100857
      2          1           0       -0.000000    0.758602   -0.403427
      3          1           0       -0.000000   -0.758602   -0.403427
 ---------------------------------------------------------------------
 Rotational constants (GHZ):        1110.1894251         435.6864908         312.8935057
 Leave Link  202 at Sun Aug  3 21:43:08 2025, MaxMem= 12348030976 cpu:               0.3 elap:               0.0
 (Enter /home/hhratchian/gaussian/gdv-20250101-j30+/gdv/local/l301.exe)
 Basis read from chk: "H2O_B3LYP_genecp.chk" (5D, 7F)
 Pseudo-potential data read from chk file.
 There are    42 symmetry adapted cartesian basis functions of A1  symmetry.
 There are    12 symmetry adapted cartesian basis functions of A2  symmetry.
 There are    20 symmetry adapted cartesian basis functions of B1  symmetry.
 There are    31 symmetry adapted cartesian basis functions of B2  symmetry.
 There are    35 symmetry adapted basis functions of A1  symmetry.
 There are    12 symmetry adapted basis functions of A2  symmetry.
 There are    18 symmetry adapted basis functions of B1  symmetry.
 There are    27 symmetry adapted basis functions of B2  symmetry.
    92 basis functions,   126 primitive gaussians,   105 cartesian basis functions
     5 alpha electrons        5 beta electrons
       nuclear repulsion energy         9.6435792538 Hartrees.
 IExCor=      4002 DFT=T Ex+Corr=B3LYP ScaHFX=  0.200000
 ScaDFX=  0.800000  0.720000  1.000000  0.810000  1.000000  0.000000
 ScaDFX=  0.000000  0.000000  0.000000  0.000000  0.000000  0.000000
 Grid=SuperFine IRanWt=     -1 IRanGd=            0 ICorTp=0 IEDCtl=  2004
 NAtoms=    3 NActive=    3 NUniq=    2 SFac= 2.25D+00 NAtFMM=   60 NAOKFM=F Big=F
 Integral buffers will be    131072 words long.
 Raffenetti 2 integral format.
 Two-electron integral symmetry is turned on.
 No density basis found on file 200724.
 Leave Link  301 at Sun Aug  3 21:43:08 2025, MaxMem= 12348030976 cpu:               0.2 elap:               0.1
 (Enter /home/hhratchian/gaussian/gdv-20250101-j30+/gdv/l302.exe)
 NPDir=0 NMtPBC=     1 NCelOv=     1 NCel=       1 NClECP=     1 NCelD=      1
         NCelK=      1 NCelE2=     1 NClLst=     1 CellRange=     0.0.
 One-electron integrals computed using PRISM.
 One-electron integral symmetry used in STVInt
   4 Symmetry operations used in ECPInt.
 ECPInt:  NShTT=     528 NPrTT=    1270 LenC2=     529 LenP2D=    1253.
 LDataN:  DoStor=T MaxTD1= 6 Len=  172
 NBasis=    92 RedAO= T EigKep=  3.31D-04  NBF=    35    12    18    27
 NBsUse=    92 1.00D-06 EigRej= -1.00D+00 NBFU=    35    12    18    27
 Precomputing XC quadrature grid using
 IXCGrd=   9 Grid=SuperFine IRanWt=          -1 IRanGd=           0 AccXCQ= 0.00D+00.
 Generated NRdTot=       0 NPtTot=      198743 NUsed=           0 NTot=          64
 NSgBfM=   105   105   105   105   105 MxSgAt=     3 MxSgA2=     3 SizInc=   0.000
 NMBTot=     1931 MaxBatPerAtom=      131 MaxMicBPerAtom=      656 NBfPt=            16854218.
 Leave Link  302 at Sun Aug  3 21:43:09 2025, MaxMem= 12348030976 cpu:               5.5 elap:               0.2
 (Enter /home/hhratchian/gaussian/gdv-20250101-j30+/gdv/l303.exe)
 DipDrv:  MaxL=1.
 Leave Link  303 at Sun Aug  3 21:43:09 2025, MaxMem= 12348030976 cpu:               0.3 elap:               0.0
 (Enter /home/hhratchian/gaussian/gdv-20250101-j30+/gdv/l401.exe)
 Initial guess from the checkpoint file:  "H2O_B3LYP_genecp.chk"
 B after Tr=    -0.000000    0.000000    0.000000
         Rot=    1.000000    0.000000    0.000000   -0.000000 Ang=   0.00 deg.
 AO Guess basis will be translated and rotated to current coordinates.
 JPrj=2 DoOrth=T DoCkMO=T.
 Initial guess orbital symmetries:
       Occupied  (A1) (A1) (B2) (A1) (B1)
       Virtual   (A1) (B2) (A1) (B1) (A1) (B2) (B2) (A1) (A2) (B1)
                 (A1) (B2) (A1) (B2) (B2) (A1) (A1) (B1) (A2) (A1)
                 (B1) (A1) (B1) (B2) (A2) (B2) (A1) (A1) (B2) (B1)
                 (B2) (A1) (A2) (B2) (A2) (A1) (B1) (A1) (B2) (B2)
                 (A1) (B1) (A1) (A2) (A1) (B1) (B2) (A1) (B2) (B1)
                 (A1) (A2) (B2) (B2) (A1) (B1) (A2) (B2) (A1) (B1)
                 (A2) (A1) (B1) (B2) (A1) (B2) (B2) (A2) (B2) (A1)
                 (B1) (A1) (A1) (B2) (B1) (A1) (B1) (A1) (A2) (B1)
                 (A2) (B2) (A1) (B2) (A1) (B2) (A1)
 The electronic state of the initial guess is 1-A1.
 Leave Link  401 at Sun Aug  3 21:43:09 2025, MaxMem= 12348030976 cpu:               1.6 elap:               0.1
 (Enter /home/hhratchian/gaussian/gdv-20250101-j30+/gdv/l508.exe)
 Keep R1 ints in memory in symmetry-blocked form, NReq=61574808.
 FoFCou: FMM=F IPFlag=           0 FMFlag=           0 FMFlg1=           0
         NFxFlg=           0 DoJE=F BraDBF=F KetDBF=F FulRan=T
         wScrn=  0.000000 ICntrl=       600 IOpCl=  0 I1Cent=           0 NGrid=           0
         NMat0=    1 NMatS0=   4278 NMatT0=    0 NMatD0=    1 NMtDS0=    0 NMtDT0=    0
 Petite list used in FoFCou.
 Tight linear equation convergence will be used.
 RB3LYP wavefunction.
 Quadratic Convergence SCF Method.
 Line search only if initial step raises energy.
 Iteration   1 EE= -76.4601199294110                                    Grad=1.484D-07 Max rot=    0.0000 deg.
 Rotation gradient small -- convergence achieved.
 Orbital symmetries in SymMO:
    1=1    2=1    3=4    4=1    5=3    6=1    7=4    8=1    9=3   10=1
   11=4   12=4   13=1   14=2   15=3   16=1   17=4   18=1   19=4   20=4
   21=1   22=1   23=3   24=2   25=1   26=3   27=1   28=3   29=4   30=2
   31=4   32=1   33=1   34=4   35=3   36=4   37=1   38=2   39=4   40=2
   41=1   42=3   43=1   44=4   45=4   46=1   47=3   48=1   49=2   50=1
   51=3   52=4   53=1   54=4   55=3   56=1   57=2   58=4   59=4   60=1
   61=3   62=2   63=4   64=1   65=3   66=2   67=1   68=3   69=4   70=1
   71=4   72=4   73=2   74=4   75=1   76=3   77=1   78=1   79=4   80=3
   81=1   82=3   83=1   84=2   85=3   86=2   87=4   88=1   89=4   90=1
   91=4   92=1
 SCF Done:  E(RB3LYP) =  -76.4601199294     a.u. after    1 cycles
            Convg  =    0.1484D-06                     1 Fock formations.
              S**2 =  0.0000                  -V/T =  2.0033
 Leave Link  508 at Sun Aug  3 21:43:09 2025, MaxMem= 12348030976 cpu:               9.0 elap:               0.3
 (Enter /home/hhratchian/gaussian/gdv-20250101-j30+/gdv/l601.exe)
 Copying SCF densities to generalized density rwf, IOpCl= 0 IROHF=0.
 
 **********************************************************************
 
               Population analysis using the SCF Density.
 
 **********************************************************************
 
 Orbital symmetries:
       Occupied  (A1) (A1) (B2) (A1) (B1)
       Virtual   (A1) (B2) (A1) (B1) (A1) (B2) (B2) (A1) (A2) (B1)
                 (A1) (B2) (A1) (B2) (B2) (A1) (A1) (B1) (A2) (A1)
                 (B1) (A1) (B1) (B2) (A2) (B2) (A1) (A1) (B2) (B1)
                 (B2) (A1) (A2) (B2) (A2) (A1) (B1) (A1) (B2) (B2)
                 (A1) (B1) (A1) (A2) (A1) (B1) (B2) (A1) (B2) (B1)
                 (A1) (A2) (B2) (B2) (A1) (B1) (A2) (B2) (A1) (B1)
                 (A2) (A1) (B1) (B2) (A1) (B2) (B2) (A2) (B2) (A1)
                 (B1) (A1) (A1) (B2) (B1) (A1) (B1) (A1) (A2) (B1)
                 (A2) (B2) (A1) (B2) (A1) (B2) (A1)
 The electronic state is 1-A1.
 Alpha  occ. eigenvalues --      -19.12950      -1.03886      -0.57559      -0.38971      -0.32715
 Alpha virt. eigenvalues --       -0.02045       0.02042       0.07898       0.09335       0.10332
 Alpha virt. eigenvalues --        0.11994       0.15786       0.17088       0.19077       0.23089
 Alpha virt. eigenvalues --        0.23372       0.30827       0.34258       0.36381       0.47602
 Alpha virt. eigenvalues --        0.51556       0.57390       0.58428       0.58653       0.69604
 Alpha virt. eigenvalues --        0.71477       0.72342       0.76779       0.77570       0.78785
 Alpha virt. eigenvalues --        0.80563       0.84240       0.89602       0.90328       0.92543
 Alpha virt. eigenvalues --        0.99941       1.04517       1.04911       1.09250       1.34619
 Alpha virt. eigenvalues --        1.38410       1.43548       1.54838       1.58999       1.82952
 Alpha virt. eigenvalues --        1.89712       1.98844       2.04890       2.06993       2.13720
 Alpha virt. eigenvalues --        2.15673       2.16106       2.20405       2.41628       2.42440
 Alpha virt. eigenvalues --        2.53996       2.63203       2.65655       3.37676       3.51145
 Alpha virt. eigenvalues --        3.72693       3.73797       3.96791       3.98866       4.05968
 Alpha virt. eigenvalues --        4.09914       4.13754       4.15650       4.16006       4.32580
 Alpha virt. eigenvalues --        4.48273       4.88675       4.95707       5.09687       5.10193
 Alpha virt. eigenvalues --        5.22554       5.41638       5.77895       6.07018       6.25393
 Alpha virt. eigenvalues --        6.42943       6.62410       6.73064       6.80413       6.89268
 Alpha virt. eigenvalues --        6.97336       7.11447       7.23097       7.54677       7.64140
 Alpha virt. eigenvalues --        8.43989      16.65659
          Condensed to atoms (all electrons):
               1          2          3
     1  O    7.663520   0.289645   0.289645
     2  H    0.289645   0.621944  -0.032993
     3  H    0.289645  -0.032993   0.621944
 Mulliken charges:
               1
     1  O   -0.242809
     2  H    0.121405
     3  H    0.121405
 Sum of Mulliken charges=   0.00000
 Mulliken charges with hydrogens summed into heavy atoms:
               1
     1  O    0.000000
 Electronic spatial extent (au):  <R**2>=             19.4256
 Charge=              0.0000 electrons
 Dipole moment (field-independent basis, Debye):
    X=             -0.0000    Y=             -0.0000    Z=             -1.7023  Tot=              1.7023
 Quadrupole moment (field-independent basis, Debye-Ang):
   XX=             -7.6934   YY=             -4.2771   ZZ=             -6.6749
   XY=              0.0000   XZ=              0.0000   YZ=             -0.0000
 Traceless Quadrupole moment (field-independent basis, Debye-Ang):
   XX=             -1.4783   YY=              1.9381   ZZ=             -0.4598
   XY=              0.0000   XZ=              0.0000   YZ=             -0.0000
 Octapole moment (field-independent basis, Debye-Ang**2):
  XXX=              0.0000  YYY=              0.0000  ZZZ=             -0.8937  XYY=             -0.0000
  XXY=             -0.0000  XXZ=             -0.2200  XZZ=              0.0000  YZZ=             -0.0000
  YYZ=             -1.1714  XYZ=             -0.0000
 Hexadecapole moment (field-independent basis, Debye-Ang**3):
 XXXX=             -7.6380 YYYY=             -6.1830 ZZZZ=             -7.7562 XXXY=             -0.0000
 XXXZ=             -0.0000 YYYX=             -0.0000 YYYZ=              0.0000 ZZZX=             -0.0000
 ZZZY=              0.0000 XXYY=             -2.6471 XXZZ=             -2.5914 YYZZ=             -2.1858
 XXYZ=              0.0000 YYXZ=              0.0000 ZZXY=             -0.0000
 N-N=           9.643579 E-N=        -200.050439  KE=          76.209428
 Symmetry A1   KE=          67.913782
 Symmetry A2   KE=           0.000000
 Symmetry B1   KE=           4.509921
 Symmetry B2   KE=           3.785725
 No NMR shielding tensors so no spin-rotation constants.
 Leave Link  601 at Sun Aug  3 21:43:09 2025, MaxMem= 12348030976 cpu:               5.6 elap:               0.2
 (Enter /home/hhratchian/gaussian/gdv-20250101-j30+/gdv/l701.exe)
 ... and contract with generalized density number  0.
 Compute integral first derivatives.
   4 Symmetry operations used in ECPInt.
 ECPInt:  NShTT=     528 NPrTT=    1270 LenC2=     529 LenP2D=    1253.
 LDataN:  DoStor=T MaxTD1= 7 Len=  274
 Leave Link  701 at Sun Aug  3 21:43:10 2025, MaxMem= 12348030976 cpu:               5.4 elap:               0.2
 (Enter /home/hhratchian/gaussian/gdv-20250101-j30+/gdv/l702.exe)
 L702 exits ... SP integral derivatives will be done elsewhere.
 Leave Link  702 at Sun Aug  3 21:43:10 2025, MaxMem= 12348030976 cpu:               0.1 elap:               0.0
 (Enter /home/hhratchian/gaussian/gdv-20250101-j30+/gdv/l703.exe)
 Integral derivatives from FoFJK, PRISM(SPDF).
 Compute integral first derivatives, UseDBF=F ICtDFT=           0.
 Calling FoFJK, ICntrl=      2127 FMM=F ISym2X=1 I1Cent= 0 IOpClX= 0 NMat=1 NMatS=1 NMatT=0.
 FoFJK:  IHMeth= 1 ICntrl=    2127 DoSepK=F KAlg= 0 I1Cent=           0 FoldK=F
 IRaf=         0 NMat=       1 IRICut=       1 DoRegI=T DoRafI=F ISym2E= 1 IDoP0=0 IntGTp=1.
 FoFCou: FMM=F IPFlag=           0 FMFlag=      100000 FMFlg1=         800
         NFxFlg=           0 DoJE=F BraDBF=F KetDBF=F FulRan=T
         wScrn=  0.000000 ICntrl=      2127 IOpCl=  0 I1Cent=           0 NGrid=           0
         NMat0=    1 NMatS0=      1 NMatT0=    0 NMatD0=    1 NMtDS0=    0 NMtDT0=    0
 Petite list used in FoFCou.
 Leave Link  703 at Sun Aug  3 21:43:10 2025, MaxMem= 12348030976 cpu:              16.3 elap:               0.4
 (Enter /home/hhratchian/gaussian/gdv-20250101-j30+/gdv/l716.exe)
 Dipole        =-3.16226587D-17 0.00000000D+00-6.69752573D-01
 ***** Axes restored to original set *****
 -------------------------------------------------------------------
 Center     Atomic                   Forces (Hartrees/Bohr)
 Number     Number              X              Y              Z
 -------------------------------------------------------------------
      1        8          -0.000000000   -0.000000000   -0.076195401
      2        1           0.042449822    0.000000000    0.038097701
      3        1          -0.042449822    0.000000000    0.038097701
 -------------------------------------------------------------------
 Cartesian Forces:  Max     0.076195401 RMS     0.036987360
 Leave Link  716 at Sun Aug  3 21:43:10 2025, MaxMem= 12348030976 cpu:               0.1 elap:               0.0
 (Enter /home/hhratchian/gaussian/gdv-20250101-j30+/gdv/l103.exe)

 GradGradGradGradGradGradGradGradGradGradGradGradGradGradGradGradGradGrad
 Berny optimization.
 FormGI is forming the generalized inverse of G from B-inverse, IUseBI=4.
 NTrRot=    -1 NTRed=     3 NAtoms=     3 NSkip=     0 NRank=     3 IsLin=F EigSml=8.5452D-01
 Internal  Forces:  Max     0.056442337 RMS     0.046804693
 Search for a local minimum.
 Step number   1 out of a maximum of   20
 All quantities printed in internal units (Hartrees-Bohrs-Radians)
 RMS Force = .46805D-01 SwitMx=.10000D-02 MixMth= 1
 Mixed Optimization -- RFO/linear search
 Second derivative matrix not updated -- first step.
 The second derivative matrix:
                          R1        R2        A1
           R1           0.67525
           R2           0.00000   0.67525
           A1           0.00000   0.00000   0.16000
 ITU=  0
     Eigenvalues ---    0.16000   0.67525   0.67525
 RFO step:  Lambda=-1.04682293D-02 EMin= 1.60000000D-01
 Linear search not attempted -- first point.
 GrdOpt: GIC=T ITstSp=  0 NP=   1 DidLin=F DidDIS=F IDoGRo=0 IDoRot=0
         ISwap=1 XLin= 0.000 DXMaxT= 0.300
 Iteration  1 RMS(Cart)=  0.03169968 RMS(Int)=  0.00249693
 Iteration  2 RMS(Cart)=  0.00159009 RMS(Int)=  0.00000320
 Iteration  3 RMS(Cart)=  0.00000127 RMS(Int)=  0.00000000
 Iteration  4 RMS(Cart)=  0.00000000 RMS(Int)=  0.00000000
 ClnCor:  largest displacement from symmetrization is 2.48D-16 for atom     3.
 Variable       Old X    -DE/DX   Delta X   Delta X   Delta X     New X
                                 (Linear)    (Quad)   (Total)
    R1        1.72139   0.05644   0.00000   0.08231   0.08231   1.80370
    R2        1.72139   0.05644   0.00000   0.08231   0.08231   1.80370
    A1        1.96824  -0.01416   0.00000  -0.08308  -0.08308   1.88516
         Item               Value     Threshold  Converged?
 Maximum Force            0.056442     0.000450     NO 
 RMS     Force            0.046805     0.000300     NO 
 Maximum Displacement     0.071389     0.001800     NO 
 RMS     Displacement     0.054694     0.001200     NO 
 Predicted change in Energy=-5.341164D-03
 GradGradGradGradGradGradGradGradGradGradGradGradGradGradGradGradGradGrad

 Leave Link  103 at Sun Aug  3 21:43:10 2025, MaxMem= 12348030976 cpu:               0.2 elap:               0.0
 (Enter /home/hhratchian/gaussian/gdv-20250101-j30+/gdv/l202.exe)
                          Input orientation:                          
 ---------------------------------------------------------------------
 Center     Atomic      Atomic             Coordinates (Angstroms)
 Number     Number       Type             X           Y           Z
 ---------------------------------------------------------------------
      1          8           0       -0.000000    0.000000   -0.037777
      2          1           0        0.772248    0.000000    0.523173
      3          1           0       -0.772248   -0.000000    0.523173
 ---------------------------------------------------------------------
                    Distance matrix (angstroms):
                    1          2          3
     1  O    0.000000
     2  H    0.954480   0.000000
     3  H    0.954480   1.544495   0.000000
 Stoichiometry    H2O
 Framework group  C2V[C2(O),SGV(H2)]
 Deg. of freedom     2
 Full point group                 C2V     NOp   4
 RotChk:  IX=0 Diff= 4.37D-16
 Largest Abelian subgroup         C2V     NOp   4
 Largest concise Abelian subgroup C2      NOp   2
                         Standard orientation:                         
 ---------------------------------------------------------------------
 Center     Atomic      Atomic             Coordinates (Angstroms)
 Number     Number       Type             X           Y           Z
 ---------------------------------------------------------------------
      1          8           0       -0.000000   -0.000000    0.112190
      2          1           0       -0.000000    0.772248   -0.448760
      3          1           0       -0.000000   -0.772248   -0.448760
 ---------------------------------------------------------------------
 Rotational constants (GHZ):         897.2205924         420.4253993         286.2789613
 Leave Link  202 at Sun Aug  3 21:43:10 2025, MaxMem= 12348030976 cpu:               1.3 elap:               0.0
 (Enter /home/hhratchian/gaussian/gdv-20250101-j30+/gdv/local/l301.exe)
 Basis read from rwf:  (5D, 7F)
 Pseudo-potential data read from rwf file.
 There are    42 symmetry adapted cartesian basis functions of A1  symmetry.
 There are    12 symmetry adapted cartesian basis functions of A2  symmetry.
 There are    20 symmetry adapted cartesian basis functions of B1  symmetry.
 There are    31 symmetry adapted cartesian basis functions of B2  symmetry.
 There are    35 symmetry adapted basis functions of A1  symmetry.
 There are    12 symmetry adapted basis functions of A2  symmetry.
 There are    18 symmetry adapted basis functions of B1  symmetry.
 There are    27 symmetry adapted basis functions of B2  symmetry.
    92 basis functions,   126 primitive gaussians,   105 cartesian basis functions
     5 alpha electrons        5 beta electrons
       nuclear repulsion energy         9.2132520968 Hartrees.
 IExCor=      4002 DFT=T Ex+Corr=B3LYP ScaHFX=  0.200000
 ScaDFX=  0.800000  0.720000  1.000000  0.810000  1.000000  0.000000
 ScaDFX=  0.000000  0.000000  0.000000  0.000000  0.000000  0.000000
 Grid=SuperFine IRanWt=     -1 IRanGd=            0 ICorTp=0 IEDCtl=  2004
 NAtoms=    3 NActive=    3 NUniq=    2 SFac= 2.25D+00 NAtFMM=   60 NAOKFM=F Big=F
 Integral buffers will be    131072 words long.
 Raffenetti 2 integral format.
 Two-electron integral symmetry is turned on.
 No density basis found on file    724.
 Leave Link  301 at Sun Aug  3 21:43:10 2025, MaxMem= 12348030976 cpu:               0.2 elap:               0.1
 (Enter /home/hhratchian/gaussian/gdv-20250101-j30+/gdv/l302.exe)
 NPDir=0 NMtPBC=     1 NCelOv=     1 NCel=       1 NClECP=     1 NCelD=      1
         NCelK=      1 NCelE2=     1 NClLst=     1 CellRange=     0.0.
 One-electron integrals computed using PRISM.
 One-electron integral symmetry used in STVInt
   4 Symmetry operations used in ECPInt.
 ECPInt:  NShTT=     528 NPrTT=    1270 LenC2=     529 LenP2D=    1253.
 LDataN:  DoStor=T MaxTD1= 6 Len=  172
 NBasis=    92 RedAO= T EigKep=  3.76D-04  NBF=    35    12    18    27
 NBsUse=    92 1.00D-06 EigRej= -1.00D+00 NBFU=    35    12    18    27
 Precomputing XC quadrature grid using
 IXCGrd=   9 Grid=SuperFine IRanWt=          -1 IRanGd=           0 AccXCQ= 0.00D+00.
 Generated NRdTot=       0 NPtTot=      198913 NUsed=           0 NTot=          64
 NSgBfM=   105   105   105   105   105 MxSgAt=     3 MxSgA2=     3 SizInc=   0.000
 NMBTot=     1937 MaxBatPerAtom=      131 MaxMicBPerAtom=      653 NBfPt=            16898508.
 Leave Link  302 at Sun Aug  3 21:43:10 2025, MaxMem= 12348030976 cpu:               3.6 elap:               0.1
 (Enter /home/hhratchian/gaussian/gdv-20250101-j30+/gdv/l303.exe)
 DipDrv:  MaxL=1.
[...]
 Orbital symmetries in SymMO:
    1=1    2=1    3=4    4=1    5=3    6=1    7=4    8=1    9=3   10=1
   11=4   12=4   13=1   14=2   15=3   16=1   17=4   18=1   19=4   20=4
   21=1   22=1   23=2   24=3   25=1   26=3   27=1   28=3   29=4   30=2
   31=4   32=1   33=1   34=4   35=3   36=4   37=1   38=2   39=4   40=2
   41=1   42=3   43=1   44=4   45=4   46=1   47=3   48=2   49=1   50=1
   51=3   52=4   53=1   54=4   55=3   56=1   57=4   58=2   59=4   60=1
   61=3   62=2   63=1   64=4   65=3   66=2   67=3   68=1   69=4   70=1
   71=4   72=2   73=4   74=4   75=1   76=3   77=1   78=1   79=4   80=3
   81=1   82=3   83=3   84=1   85=2   86=4   87=2   88=1   89=1   90=4
   91=4   92=1
 SCF Done:  E(RB3LYP) =  -76.4661982408     a.u. after    1 cycles
            Convg  =    0.1820D-06                     1 Fock formations.
              S**2 =  0.0000                  -V/T =  2.0060
 Leave Link  508 at Sun Aug  3 21:43:33 2025, MaxMem= 12348030976 cpu:               9.4 elap:               0.3
 (Enter /home/hhratchian/gaussian/gdv-20250101-j30+/gdv/l601.exe)
 Copying SCF densities to generalized density rwf, IOpCl= 0 IROHF=0.
 
 **********************************************************************
 
               Population analysis using the SCF Density.
 
 **********************************************************************
 
 Orbital symmetries:
       Occupied  (A1) (A1) (B2) (A1) (B1)
       Virtual   (A1) (B2) (A1) (B1) (A1) (B2) (B2) (A1) (A2) (B1)
                 (A1) (B2) (A1) (B2) (B2) (A1) (A1) (A2) (B1) (A1)
                 (B1) (A1) (B1) (B2) (A2) (B2) (A1) (A1) (B2) (B1)
                 (B2) (A1) (A2) (B2) (A2) (A1) (B1) (A1) (B2) (B2)
                 (A1) (B1) (A2) (A1) (A1) (B1) (B2) (A1) (B2) (B1)
                 (A1) (B2) (A2) (B2) (A1) (B1) (A2) (A1) (B2) (B1)
                 (A2) (B1) (A1) (B2) (A1) (B2) (A2) (B2) (B2) (A1)
                 (B1) (A1) (A1) (B2) (B1) (A1) (B1) (B1) (A1) (A2)
                 (B2) (A2) (A1) (A1) (B2) (B2) (A1)
 The electronic state is 1-A1.
 Alpha  occ. eigenvalues --      -19.14044      -1.02113      -0.54070      -0.39898      -0.32413
 Alpha virt. eigenvalues --       -0.02506       0.01919       0.07569       0.09538       0.10264
 Alpha virt. eigenvalues --        0.11484       0.15089       0.17010       0.19139       0.21994
 Alpha virt. eigenvalues --        0.22420       0.30706       0.33000       0.34773       0.47153
 Alpha virt. eigenvalues --        0.51977       0.56974       0.59061       0.59082       0.68024
 Alpha virt. eigenvalues --        0.70912       0.72881       0.76146       0.76298       0.78576
 Alpha virt. eigenvalues --        0.80622       0.81694       0.87789       0.88584       0.91189
 Alpha virt. eigenvalues --        0.98311       1.03644       1.04468       1.10405       1.32605
 Alpha virt. eigenvalues --        1.35871       1.38824       1.57177       1.61361       1.74027
 Alpha virt. eigenvalues --        1.85951       1.99081       2.04697       2.06120       2.12725
 Alpha virt. eigenvalues --        2.16383       2.17399       2.21221       2.41928       2.43204
 Alpha virt. eigenvalues --        2.48291       2.57091       2.61328       3.31490       3.41292
 Alpha virt. eigenvalues --        3.64790       3.71455       3.87735       3.94313       3.99519
 Alpha virt. eigenvalues --        4.06796       4.08177       4.08386       4.15363       4.30073
 Alpha virt. eigenvalues --        4.44350       4.80261       4.80960       4.89564       4.92212
 Alpha virt. eigenvalues --        5.11190       5.28131       5.71726       6.05668       6.24398
 Alpha virt. eigenvalues --        6.41991       6.64968       6.73319       6.79065       6.82322
 Alpha virt. eigenvalues --        6.83761       6.84149       7.02998       7.39593       7.40870
 Alpha virt. eigenvalues --        8.26060      14.91111
          Condensed to atoms (all electrons):
               1          2          3
     1  O    7.844243   0.255152   0.255152
     2  H    0.255152   0.562760   0.004814
     3  H    0.255152   0.004814   0.562760
 Mulliken charges:
               1
     1  O   -0.354548
     2  H    0.177274
     3  H    0.177274
 Sum of Mulliken charges=   0.00000
 Mulliken charges with hydrogens summed into heavy atoms:
               1
     1  O    0.000000
 Electronic spatial extent (au):  <R**2>=             20.0793
 Charge=              0.0000 electrons
 Dipole moment (field-independent basis, Debye):
    X=             -0.0000    Y=             -0.0000    Z=             -1.8472  Tot=              1.8472
 Quadrupole moment (field-independent basis, Debye-Ang):
   XX=             -7.8029   YY=             -4.4691   ZZ=             -6.5069
   XY=              0.0000   XZ=              0.0000   YZ=              0.0000
 Traceless Quadrupole moment (field-independent basis, Debye-Ang):
   XX=             -1.5433   YY=              1.7905   ZZ=             -0.2473
   XY=              0.0000   XZ=              0.0000   YZ=              0.0000
 Octapole moment (field-independent basis, Debye-Ang**2):
  XXX=              0.0000  YYY=             -0.0000  ZZZ=             -0.9381  XYY=             -0.0000
  XXY=             -0.0000  XXZ=             -0.1962  XZZ=              0.0000  YZZ=             -0.0000
  YYZ=             -1.2885  XYZ=             -0.0000
 Hexadecapole moment (field-independent basis, Debye-Ang**3):
 XXXX=             -7.8024 YYYY=             -6.7740 ZZZZ=             -8.1702 XXXY=             -0.0000
 XXXZ=             -0.0000 YYYX=             -0.0000 YYYZ=              0.0000 ZZZX=             -0.0000
 ZZZY=             -0.0000 XXYY=             -2.7635 XXZZ=             -2.7081 YYZZ=             -2.1973
 XXYZ=              0.0000 YYXZ=              0.0000 ZZXY=             -0.0000
 N-N=           9.149980 E-N=        -198.977394  KE=          76.012817
 Symmetry A1   KE=          67.815617
 Symmetry A2   KE=           0.000000
 Symmetry B1   KE=           4.516270
 Symmetry B2   KE=           3.680930
 No NMR shielding tensors so no spin-rotation constants.
 Leave Link  601 at Sun Aug  3 21:43:33 2025, MaxMem= 12348030976 cpu:               4.9 elap:               0.2
 (Enter /home/hhratchian/gaussian/gdv-20250101-j30+/gdv/l801.exe)
 DoSCS=F DFT=T ScalE2(SS,OS)=  1.000000  1.000000
 Range of M.O.s used for correlation:     1    92
 NBasis=    92 NAE=     5 NBE=     5 NFC=     0 NFV=     0
 NROrb=     92 NOA=     5 NOB=     5 NVA=    87 NVB=    87

 **** Warning!!: The largest alpha MO coefficient is  0.15747430D+02

 Leave Link  801 at Sun Aug  3 21:43:33 2025, MaxMem= 12348030976 cpu:               0.2 elap:               0.0
 (Enter /home/hhratchian/gaussian/gdv-20250101-j30+/gdv/l914.exe)
 RHF ground state
 Doing stability rather than CIS.
 DoSCS=F DFT=T ScalE2(SS,OS)=  1.000000  1.000000
   ScalD2(USS,UOS,TSS,TOS,w)=  1.000000  1.000000  1.000000  1.000000  1.000000
 Keep R1 and R2 ints in memory in symmetry-blocked form, NReq=124134203.
 FoFCou: FMM=F IPFlag=           0 FMFlag=           0 FMFlg1=           0
         NFxFlg=           0 DoJE=F BraDBF=F KetDBF=F FulRan=T
         wScrn=  0.000000 ICntrl=       600 IOpCl=  0 I1Cent=           0 NGrid=           0
         NMat0=    1 NMatS0=   4278 NMatT0=    0 NMatD0=    1 NMtDS0=    0 NMtDT0=    0
 Petite list used in FoFCou.
 MDV= 12348030976 DFT=T IDoStb=1 Mixed=T DoRPA=F DoScal=F NonHer=F
 Making orbital integer symmetry assigments:
 Orbital symmetries:
       Occupied  (A1) (A1) (B2) (A1) (B1)
       Virtual   (A1) (B2) (A1) (B1) (A1) (B2) (B2) (A1) (A2) (B1)
                 (A1) (B2) (A1) (B2) (B2) (A1) (A1) (A2) (B1) (A1)
                 (B1) (A1) (B1) (B2) (A2) (B2) (A1) (A1) (B2) (B1)
                 (B2) (A1) (A2) (B2) (A2) (A1) (B1) (A1) (B2) (B2)
                 (A1) (B1) (A2) (A1) (A1) (B1) (B2) (A1) (B2) (B1)
                 (A1) (B2) (A2) (B2) (A1) (B1) (A2) (A1) (B2) (B1)
                 (A2) (B1) (A1) (B2) (A1) (B2) (A2) (B2) (B2) (A1)
                 (B1) (A1) (A1) (B2) (B1) (A1) (B1) (B1) (A1) (A2)
                 (B2) (A2) (A1) (A1) (B2) (B2) (A1)
 The electronic state is 1-A1.
    24 initial guesses have been made.
 Convergence on wavefunction:    0.001000000000000
 Davidson Disk Diagonalization:  ConvIn= 1.00D-03 SkipCon=T Conv= 1.00D-03.
 Max sub-space:  1740 initial roots:    24 roots to seek:     1 dimension of matrix:          870
 Iteration     1 Dimension    24 NMult     0 NNew     24
 CISAX will form    24 AO SS matrices at one time.
 NMat=    24 NSing=    12 JSym2X=-1.
 New state      1 was old state      2
 Excitation Energies [eV] at current iteration:
 Root      1 :     6.465020130378891
 Root      2 :     7.073138349294181
 Root      3 :     8.179993929764814
 Root      4 :     8.327698087236968
 Root      5 :     8.488867114102767
 Root      6 :     9.242633985130094
 Root      7 :     9.614866178182387
 Root      8 :     9.628004521751937
 Root      9 :     9.782619837228788
 Root     10 :    10.219411072559099
 Root     11 :    10.357604717687886
 Root     12 :    10.413842045715414
 Root     13 :    10.518131090568312
 Root     14 :    10.622735858416489
 Root     15 :    10.724198446164317
 Root     16 :    11.041858034318679
 Root     17 :    11.518855927652172
 Root     18 :    11.626091615573158
 Root     19 :    11.658460001871418
 Root     20 :    12.006995612767271
 Root     21 :    12.096645535022484
 Root     22 :    12.108498800572697
 Root     23 :    12.277383383078400
 Root     24 :    14.884380542201269
 Iteration     2 Dimension    48 NMult    24 NNew     24
 CISAX will form    24 AO SS matrices at one time.
 NMat=    24 NSing=    12 JSym2X=-1.
 Root      1 not converged, maximum delta is    0.072544438051725
 Excitation Energies [eV] at current iteration:
 Root      1 :     6.283213863740384   Change is   -0.181806266638507
 Root      2 :     7.035455046328278   Change is   -0.037683302965904
 Root      3 :     8.040062553148951   Change is   -0.139931376615861
 Root      4 :     8.151374223025886   Change is   -0.337492891076881
 Root      5 :     8.314600281414373   Change is   -0.013097805822594
 Root      6 :     9.142991488476804   Change is   -0.099642496653291
 Root      7 :     9.264785275655251   Change is   -0.350080902527135
 Root      8 :     9.463137203880940   Change is   -0.164867317870995
 Root      9 :     9.747525303891756   Change is   -0.035094533337032
 Root     10 :     9.875056464586830   Change is   -0.482548253101056
 Root     11 :    10.108338082335678   Change is   -0.111072990223422
 Root     12 :    10.176140849312159   Change is   -0.237701196403257
 Root     13 :    10.457615352490304   Change is   -0.060515738078008
 Root     14 :    10.544409094573354   Change is   -0.078326763843135
 Root     15 :    10.558254072376522   Change is   -0.483603961942157
 Root     16 :    10.674780231761044   Change is   -0.049418214403272
 Root     17 :    11.139024148400631   Change is   -0.379831779251540
 Root     18 :    11.605738841558647   Change is   -0.020352774014511
 Root     19 :    11.610148912467515   Change is   -0.048311089403903
 Root     20 :    11.861607549765532   Change is   -0.145388063001739
 Root     21 :    11.913709874855254
 Root     22 :    12.081127505166590   Change is   -0.027371295406106
 Root     23 :    12.221566992717147   Change is   -0.055816390361253
 Root     24 :    12.255122634039852   Change is   -2.629257908161417
 Iteration     3 Dimension    54 NMult    48 NNew      6
 CISAX will form     6 AO SS matrices at one time.
 NMat=     6 NSing=     3 JSym2X=-1.
 Root      1 not converged, maximum delta is    0.001218395224927
 Excitation Energies [eV] at current iteration:
 Root      1 :     6.282737979443760   Change is   -0.000475884296624
 Root      2 :     7.035338582366147   Change is   -0.000116463962131
 Root      3 :     8.039610340215130   Change is   -0.000452212933822
 Root      4 :     8.129641985689291   Change is   -0.021732237336594
 Root      5 :     8.314503012959277   Change is   -0.000097268455097
 Root      6 :     9.136465858384293   Change is   -0.006525630092511
 Iteration     4 Dimension    60 NMult    54 NNew      6
 CISAX will form     6 AO SS matrices at one time.
 NMat=     6 NSing=     3 JSym2X=-1.
 Root      1 has converged.
 Excitation Energies [eV] at current iteration:
 Root      1 :     6.282736325442882   Change is   -0.000001654000877
 Root      2 :     7.035338125828289   Change is   -0.000000456537857
 Root      3 :     8.039608879030238   Change is   -0.000001461184892
 Root      4 :     8.128758599534029   Change is   -0.000883386155263
 Root      5 :     8.314502791717597   Change is   -0.000000221241679
 Root      6 :     9.136108414628444   Change is   -0.000357443755850
 Convergence achieved on expansion vectors.
 1PDM for each excited state written to RWF  633
 Ground to excited state transition densities written to RWF  633

 ***********************************************************************
 Stability analysis using <AA,BB:AA,BB> singles matrix:
 ***********************************************************************

 Eigenvectors of the stability matrix:
 
 Eigenvector   1:      Triplet-B1   Eigenvalue= 0.2308863  <S**2>=2.000
       5 ->  6         0.67774
       5 ->  8         0.15491
 The wavefunction is stable under the perturbations considered.
 Leave Link  914 at Sun Aug  3 21:43:35 2025, MaxMem= 12348030976 cpu:             101.5 elap:               2.0
 (Enter /home/hhratchian/gaussian/gdv-20250101-j30+/gdv/l508.exe)
 The wavefunction is already stable.
 Leave Link  508 at Sun Aug  3 21:43:35 2025, MaxMem= 12348030976 cpu:               0.1 elap:               0.0
 (Enter /home/hhratchian/gaussian/gdv-20250101-j30+/gdv/l601.exe)
 Copying SCF densities to generalized density rwf, IOpCl= 0 IROHF=0.
 
 **********************************************************************
 
               Population analysis using the SCF Density.
 
 **********************************************************************
 
 Orbital symmetries:
       Occupied  (A1) (A1) (B2) (A1) (B1)
       Virtual   (A1) (B2) (A1) (B1) (A1) (B2) (B2) (A1) (A2) (B1)
                 (A1) (B2) (A1) (B2) (B2) (A1) (A1) (A2) (B1) (A1)
                 (B1) (A1) (B1) (B2) (A2) (B2) (A1) (A1) (B2) (B1)
                 (B2) (A1) (A2) (B2) (A2) (A1) (B1) (A1) (B2) (B2)
                 (A1) (B1) (A2) (A1) (A1) (B1) (B2) (A1) (B2) (B1)
                 (A1) (B2) (A2) (B2) (A1) (B1) (A2) (A1) (B2) (B1)
                 (A2) (B1) (A1) (B2) (A1) (B2) (A2) (B2) (B2) (A1)
                 (B1) (A1) (A1) (B2) (B1) (A1) (B1) (B1) (A1) (A2)
                 (B2) (A2) (A1) (A1) (B2) (B2) (A1)
 The electronic state is 1-A1.
 Alpha  occ. eigenvalues --      -19.14044      -1.02113      -0.54070      -0.39898      -0.32413
 Alpha virt. eigenvalues --       -0.02506       0.01919       0.07569       0.09538       0.10264
 Alpha virt. eigenvalues --        0.11484       0.15089       0.17010       0.19139       0.21994
 Alpha virt. eigenvalues --        0.22420       0.30706       0.33000       0.34773       0.47153
 Alpha virt. eigenvalues --        0.51977       0.56974       0.59061       0.59082       0.68024
 Alpha virt. eigenvalues --        0.70912       0.72881       0.76146       0.76298       0.78576
 Alpha virt. eigenvalues --        0.80622       0.81694       0.87789       0.88584       0.91189
 Alpha virt. eigenvalues --        0.98311       1.03644       1.04468       1.10405       1.32605
 Alpha virt. eigenvalues --        1.35871       1.38824       1.57177       1.61361       1.74027
 Alpha virt. eigenvalues --        1.85951       1.99081       2.04697       2.06120       2.12725
 Alpha virt. eigenvalues --        2.16383       2.17399       2.21221       2.41928       2.43204
 Alpha virt. eigenvalues --        2.48291       2.57091       2.61328       3.31490       3.41292
 Alpha virt. eigenvalues --        3.64790       3.71455       3.87735       3.94313       3.99519
 Alpha virt. eigenvalues --        4.06796       4.08177       4.08386       4.15363       4.30073
 Alpha virt. eigenvalues --        4.44350       4.80261       4.80960       4.89564       4.92212
 Alpha virt. eigenvalues --        5.11190       5.28131       5.71726       6.05668       6.24398
 Alpha virt. eigenvalues --        6.41991       6.64968       6.73319       6.79065       6.82322
 Alpha virt. eigenvalues --        6.83761       6.84149       7.02998       7.39593       7.40870
 Alpha virt. eigenvalues --        8.26060      14.91111
          Condensed to atoms (all electrons):
               1          2          3
     1  O    7.844243   0.255152   0.255152
     2  H    0.255152   0.562760   0.004814
     3  H    0.255152   0.004814   0.562760
 Mulliken charges:
               1
     1  O   -0.354548
     2  H    0.177274
     3  H    0.177274
 Sum of Mulliken charges=   0.00000
 Mulliken charges with hydrogens summed into heavy atoms:
               1
     1  O    0.000000
 Electronic spatial extent (au):  <R**2>=             20.0793
 Charge=              0.0000 electrons
 Dipole moment (field-independent basis, Debye):
    X=             -0.0000    Y=             -0.0000    Z=             -1.8472  Tot=              1.8472
 Quadrupole moment (field-independent basis, Debye-Ang):
   XX=             -7.8029   YY=             -4.4691   ZZ=             -6.5069
   XY=              0.0000   XZ=              0.0000   YZ=              0.0000
 Traceless Quadrupole moment (field-independent basis, Debye-Ang):
   XX=             -1.5433   YY=              1.7905   ZZ=             -0.2473
   XY=              0.0000   XZ=              0.0000   YZ=              0.0000
 Octapole moment (field-independent basis, Debye-Ang**2):
  XXX=              0.0000  YYY=             -0.0000  ZZZ=             -0.9381  XYY=             -0.0000
  XXY=             -0.0000  XXZ=             -0.1962  XZZ=              0.0000  YZZ=             -0.0000
  YYZ=             -1.2885  XYZ=             -0.0000
 Hexadecapole moment (field-independent basis, Debye-Ang**3):
 XXXX=             -7.8024 YYYY=             -6.7740 ZZZZ=             -8.1702 XXXY=             -0.0000
 XXXZ=             -0.0000 YYYX=             -0.0000 YYYZ=              0.0000 ZZZX=             -0.0000
 ZZZY=             -0.0000 XXYY=             -2.7635 XXZZ=             -2.7081 YYZZ=             -2.1973
 XXYZ=              0.0000 YYXZ=              0.0000 ZZXY=             -0.0000
 N-N=           9.149980 E-N=        -198.977394  KE=          76.012817
 Symmetry A1   KE=          67.815617
 Symmetry A2   KE=           0.000000
 Symmetry B1   KE=           4.516270
 Symmetry B2   KE=           3.680930
 No NMR shielding tensors so no spin-rotation constants.
 Leave Link  601 at Sun Aug  3 21:43:35 2025, MaxMem= 12348030976 cpu:               3.5 elap:               0.1
 (Enter /home/hhratchian/gaussian/gdv-20250101-j30+/gdv/local/l9999.exe)
 Unable to Open any file for archive entry.
 1\1\GINC-GNODE014\Stability\RB3LYP\Gen\H2O1\AABOUTAKA\03-Aug-2025\0\\#
 P B3LYP chkbasis Geom=AllCheck Guess=Read Stable=Opt SCF=(fermi,novara
 cc) scf=(qc,conver=8)\\Initial Stability Check for H2O\\0,1\O,0,0.,0.,
 -0.0537736657\H,0,0.7634382888,0.,0.5311708328\H,0,-0.7634382888,0.,0.
 5311708328\\Version=ES64L-GDVRevJ.30+\State=1-A1\HF=-76.4661982\RMSD=6
 .170e-09\Dipole=0.,0.,0.7267493\Quadrupole=1.3312267,-1.1473899,-0.183
 8369,0.,0.,0.\PG=C02V [C2(O1),SGV(H2)]\\@
 The archive entry for this job was punched.


 EVERYBODY NEEDS BEAUTY AS WELL AS BREAD, PLACES TO PLAY IN AND PRAY IN,
 WHERE NATURE MAY HEAL AND CHEER AND GIVE STRENGTH TO BODY AND SOUL ALIKE.

                                    -- JOHN MUIR
 Job cpu time:       0 days  0 hours  2 minutes 11.0 seconds.
 Elapsed time:       0 days  0 hours  0 minutes  3.5 seconds.
 File lengths (MBytes):  RWF=    100 Int=      0 D2E=      0 Chk=     67 Scr=      2
 Normal termination of Gaussian DV at Sun Aug  3 21:43:35 2025.
