 Set GAUSS_MDEF to "92GB".
 Set GAUSS_PDEF to "56".
 Entering Gaussian System, Link 0=gdv
 AtFile(1): SDDPlusTZ.gbs
            ! SDDPlusTZ Basis Set + ECP
            !
            !
            ! Last updated/modified by: H. P. Hratchian, August 2017.
            !
            !
            ! This file contains parameters for the SDD+TZ basis set and ECP, given in the
            ! Gaussian input format. This set is often used in the Hratchian Group's metal
            ! oxide cluster work. References to this basis and ECP are:
            !      (1) Waller, S. E.; Mann, J. E.; Rothgeb, D. W.; Jarrold, C. C. J. Phys.
            !          Chem. A 2012, 116 (39), 9639–9652.
            !      (2) Mayhall, N. J.; Rothgeb, D. W.; Hossain, E.; Raghavachari, K.;
            !          Jarrold, C. C. J. Chem. Phys. 2009, 130, 124313− 124323.
            !      (3) Andrae, D.; Haussermann, U.; Dolg, M.; Stoll, H.; Preuss, H. Theor.
            !          Chim. Acta 1990, 77, 123−141.
            !
            -Sc 0
            SDD
            S 1 1.00
             0.003 1.0
            P 1 1.00
             0.0071415 1.0
            D 1 1.00
             0.012 1.0
             F   1 1.00
                  0.180    1.0
             F   1 1.00
                  0.764    1.0
             G   1 1.00
                  0.347    1.0
            ****
            -Ti 0
            SDD
            S 1 1.00
             0.003 1.0
            P 1 1.00
             0.0071352 1.0
            D 1 1.00
             0.015 1.0
             F   1 1.00
                  0.285    1.0
             F   1 1.00
                  1.264    1.0
             G   1 1.00
                  0.636    1.0
            ****
            -V 0
            SDD
            S 1 1.00
             0.003 1.0
            P 1 1.00
             0.0079179 1.0
            D 1 1.00
             0.018 1.0
             F   1 1.00
                  0.425    1.0
             F   1 1.00
                  1.788    1.0
             G   1 1.00
                  1.048    1.0
            ****
            -Cr 0
            SDD
            S 1 1.00
             0.003 1.0
            P 1 1.00
             0.0079935 1.0
            D 1 1.00
             0.021 1.0
             F   1 1.00
                  0.640    1.0
             F   1 1.00
                  2.555    1.0
             G   1 1.00
                  1.712    1.0
            ****
            -Mn 0
            SDD
            S 1 1.00
             0.003 1.0
            P 1 1.00
             0.0084888 1.0
            D 1 1.00
             0.021 1.0
             F   1 1.00
                  0.795    1.0
             F   1 1.00
                  3.118    1.0
             G   1 1.00
                  1.964    1.0
            ****
            -Fe 0
            SDD
            S 1 1.00
             0.003 1.0
            P 1 1.00
             0.0088332 1.0
            D 1 1.00
             0.024 1.0
             F   1 1.00
                  0.871    1.0
             F   1 1.00
                  3.516    1.0
             G   1 1.00
                  2.269    1.0
            ****
            -Co 0
            SDD
            S 1 1.00
             0.003 1.0
            P 1 1.00
             0.0091782 1.0
            D 1 1.00
             0.027 1.0
             F   1 1.00
                  1.019    1.0
             F   1 1.00
                  4.076    1.0
             G   1 1.00
                  2.711    1.0
            ****
            -Ni 0
            SDD
            S 1 1.00
             0.003 1.0
            P 1 1.00
             0.0095352 1.0
            D 1 1.00
             0.027 1.0
             F   1 1.00
                  1.182    1.0
             F   1 1.00
                  4.685    1.0
             G   1 1.00
                  3.212    1.0
            ****
            -Cu 0
            SDD
            S 1 1.00
             0.003 1.0
            P 1 1.00
             0.0092634 1.0
            D 1 1.00
             0.030 1.0
             F   1 1.00
                  1.315    1.0
             F   1 1.00
                  5.208    1.0
             G   1 1.00
                  3.665    1.0
            ****
            -Zn 0
            SDD
            S 1 1.00
             0.003 1.0
            P 1 1.00
             0.0149958 1.0
            D 1 1.00
             0.033 1.0
             F   1 1.00
                  1.498    1.0
             F   1 1.00
                  5.871    1.0
             G   1 1.00
                  4.365    1.0
            ****
            -Y 0
            SDD
            S 1 1.00
             0.003 1.0
            P 1 1.00
             0.0066708 1.0
            D 1 1.00
             0.006 1.0
             F   1 1.00
                  0.144    1.0
             F   1 1.00
                  0.546    1.0
             G   1 1.00
                  0.249    1.0
            ****
            -Zr 0
            SDD
            S 1 1.00
             0.0033 1.0
            P 1 1.00
             0.0067569 1.0
            D 1 1.00
             0.009 1.0
             F   1 1.00
                  0.236    1.0
             F   1 1.00
                  0.883    1.0
             G   1 1.00
                  0.547    1.0
            ****
            -Nb 0
            SDD
            S 1 1.00
             0.0045 1.0
            P 1 1.00
             0.0701512 1.0
            D 1 1.00
             0.011 1.0
             F    1 1.00
                   0.261   1.0
             F    1 1.00
                   0.970   1.0
             G    1 1.00
                   0.536   1.0
            ****
            -Mo 0
            SDD
            S 1 1.00
             0.0045 1.0
            P 1 1.00
             0.0070821 1.0
            D 1 1.00
             0.0129 1.0
             F   1 1.00
                  0.338    1.0
             F   1 1.00
                  1.223    1.0
             G   1 1.00
                  0.744    1.0
            ****
            -Ru 0
            SDD
            S 1 1.00
             0.0048 1.0
            P 1 1.00
             0.0068781 1.0
            D 1 1.00
             0.0153 1.0
             F   1 1.00
                  0.478    1.0
             F   1 1.00
                  1.666    1.0
             G   1 1.00
                  1.057    1.0
            ****
            -Rh 0
            SDD
            S 1 1.00
             0.0048 1.0
            P 1 1.00
             0.007251 1.0
            D 1 1.00
             0.0165 1.0
             F   1 1.00
                  0.567    1.0
             F   1 1.00
                  1.989    1.0
             G   1 1.00
                  1.236    1.0
            ****
            -Pd 0
            SDD
            S 1 1.00
             0.0048 1.0
            P 1 1.00
             0.0074262 1.0
            D 1 1.00
             0.018 1.0
             F   1 1.00
                  0.621    1.0
             F   1 1.00
                  2.203    1.0
             G   1 1.00
                  1.385    1.0
            ****
            -Ag 0
            SDD
            S 1 1.00
             0.0048 1.0
            P 1 1.00
             0.0071169 1.0
            D 1 1.00
             0.0198 1.0
             F   1 1.00
                  0.732    1.0
             F   1 1.00
                  2.537    1.0
             G   1 1.00
                  1.587    1.0
            ****
            -Cd 0
            SDD
            S 1 1.00
             0.0057 1.0
            P 1 1.00
             0.0109932 1.0
            D 1 1.00
             0.0225 1.0
             F   1 1.00
                  0.834    1.0
             F   1 1.00
                  2.853    1.0
             G   1 1.00
                  1.795    1.0
            ****
            -W 0
             SDD
            S 1 1.00
             0.0045 1.0
            P 1 1.00
             0.0081084 1.0
            D 1 1.00
             0.012 1.0
             F   1 1.00
                  0.256    1.0
             F   1 1.00
                  0.825    1.0
             G   1 1.00
                  0.627    1.0
            ****
            -Os 0
            SDD
            S 1 1.00
             0.0045 1.0
            P 1 1.00
             0.0079971 1.0
            D 1 1.00
             0.015 1.0
             F   1 1.00
                  0.347    1.0
             F   1 1.00
                  1.067    1.0
             G   1 1.00
                  0.860    1.0
            ****
            -Ir 0
            SDD
            S 1 1.00
             0.0045 1.0
            P 1 1.00
             0.0082092 1.0
            D 1 1.00
             0.015 1.0
             F   1 1.00
                  0.395    1.0
             F   1 1.00
                  1.189    1.0
             G   1 1.00
                  0.982    1.0
            ****
            -Pt 0
            SDD
            S 1 1.00
             0.0045 1.0
            P 1 1.00
             0.0083406 1.0
            D 1 1.00
             0.015 1.0
             F   1 1.00
                  0.443    1.0
             F   1 1.00
                  1.323    1.0
             G   1 1.00
                  1.100    1.0
            ****
            -Au 0
            SDD
            S 1 1.00
             0.0019245 1.0
            P 1 1.00
             0.0102 1.0
            D 1 1.00
             0.0136536 1.0
             F   1 1.00
                  1.461    1.0
             F   1 1.00
                  0.498    1.0
             G   1 1.00
                  1.218    1.0
            ****
            !
            ! Gd ... HPH Added S, P, D, and F diffuse functions using 0.3 exponent ratio.
            -Gd 0
            SDD
            S 1 1.00
             0.0071100 1.0
            P 1 1.00
             0.0240000 1.0
            D 1 1.00
             0.0311100 1.0
            F 1 1.00
             0.0856500 1.0
            ****
            -H  B  C  N  O  F  P  S  Cl 0
            aug-cc-pVTz
            ****
            
            -Sc  Ti  V  Cr  Mn  Fe  Co  Ni  Cu  Zn  Y  Zr  Nb  Mo  Ru  Rh  Pd  Ag  Cd  W  Os  Ir  Pt  Au  Gd  0
            SDD
 Initial command:
 /home/hhratchian/gaussian/gdv-20250101-j30+/gdv/local/l1.exe "/scratch/aaboutaka/1562793/Gau-35452.inp" -scrdir="/scratch/aaboutaka/1562793/"
 Default is to use a total of  56 processors:
                               56 via shared-memory
                                1 via Linda
 Entering Link 1 = /home/hhratchian/gaussian/gdv-20250101-j30+/gdv/local/l1.exe PID=     35453.
  
 Copyright (c) 1988-2024, Gaussian, Inc.  All Rights Reserved.
  
 This is the private, development version of
 the Gaussian(R) DV system of programs. It is based on
 the Gaussian(R) 16 system (copyright 2016, Gaussian, Inc.),
 the Gaussian(R) 09 system (copyright 2009, Gaussian, Inc.),
 the Gaussian(R) 03 system (copyright 2003, Gaussian, Inc.),
 the Gaussian(R) 98 system (copyright 1998, Gaussian, Inc.),
 the Gaussian(R) 94 system (copyright 1995, Gaussian, Inc.),
 the Gaussian 92(TM) system (copyright 1992, Gaussian, Inc.),
 the Gaussian 90(TM) system (copyright 1990, Gaussian, Inc.),
 the Gaussian 88(TM) system (copyright 1988, Gaussian, Inc.),
 the Gaussian 86(TM) system (copyright 1986, Carnegie Mellon
 University), and the Gaussian 82(TM) system (copyright 1983,
 Carnegie Mellon University). Gaussian is a federally registered
 trademark of Gaussian, Inc.
  
 This software contains proprietary and confidential information,
 including trade secrets, belonging to Gaussian, Inc.
  
 This software is provided under written license and may be
 used, copied, transmitted, or stored only in accord with that
 written license.
  
 The following legend is applicable only to US Government
 contracts under FAR:
  
                    RESTRICTED RIGHTS LEGEND
  
 Use, reproduction and disclosure by the US Government is
 subject to restrictions as set forth in subparagraphs (a)
 and (c) of the Commercial Computer Software - Restricted
 Rights clause in FAR 52.227-19.
  
 Gaussian, Inc.
 340 Quinnipiac St., Bldg. 40, Wallingford CT 06492
  
  
 ---------------------------------------------------------------
 Warning -- This program may not be used in any manner that
 competes with the business of Gaussian, Inc. or will provide
 assistance to any competitor of Gaussian, Inc.  The licensee
 of this program is prohibited from giving any competitor of
 Gaussian, Inc. access to this program.  By using this program,
 the user acknowledges that Gaussian, Inc. is engaged in the
 business of creating and licensing software in the field of
 computational chemistry and represents and warrants to the
 licensee that it is not a competitor of Gaussian, Inc. and that
 it will not use this program in any manner prohibited above.
 ---------------------------------------------------------------
  

 Cite this work as:
 Gaussian Development Version, Revision J.30+,
 M. J. Frisch, G. W. Trucks, G. Scalmani, J. R. Cheeseman, X. Li, 
 J. Bloino, B. G. Janesko, A. V. Marenich, J. Zheng, F. Lipparini, 
 A. Jenkins, A. Liu, H. Liu, H. B. Schlegel, G. E. Scuseria, 
 M. A. Robb, V. Barone, G. A. Petersson, H. Nakatsuji, B. Mennucci, 
 C. Adamo, N. Rega, M. Caricato, H. P. Hratchian, J. V. Ortiz, 
 F. Pawlowski, A. F. Izmaylov, H. Hu, C. Liao, J. L. Sonnenberg, 
 D. Williams-Young, F. Ding, R. Gomperts, F. Egidi, J. Goings, 
 B. Peng, A. Petrone, T. Henderson, D. Ranasinghe, V. G. Zakrzewski, 
 J. Gao, G. Zheng, W. Liang, M. Hada, M. Ehara, K. Toyota, R. Fukuda, 
 J. Hasegawa, M. Ishida, T. Nakajima, Y. Honda, O. Kitao, H. Nakai, 
 T. Vreven, K. Throssell, J. A. Montgomery, Jr., J. E. Peralta, 
 F. Ogliaro, M. J. Bearpark, J. J. Heyd, E. N. Brothers, K. N. Kudin, 
 V. N. Staroverov, T. A. Keith, R. Kobayashi, J. Normand, 
 K. Raghavachari, A. P. Rendell, J. C. Burant, S. S. Iyengar, 
 M. Cossi, J. M. Millam, M. Klene, R. Cammi, R. L. Martin, O. Farkas, 
 J. B. Foresman, and D. J. Fox, Gaussian, Inc., Wallingford CT, 2024.
 
 *******************************************
 Gaussian DV:  ES64L-GDVRevJ.30+ 18-Dec-2024
                  2-Aug-2025 
 *******************************************
 %Chk=H2O_CAMB3LYP_genecp.chk
 -------------------------------------------------------------
 #P CAM-B3LYP/genecp SCF=(fermi,novaracc) Guess=Mix Stable=Opt
 -------------------------------------------------------------
 1/37=210000000,38=1,172=1/1;
 2/12=2/2;
 3/5=7,11=2,16=1,17=8,25=1,30=1,74=-40/1,2,3;
 4/13=-1/1;
 5/5=2,22=13,38=1/2;
 6/7=2,8=2,9=2,10=2,28=1/1;
 8/6=1,10=90,11=11/1;
 9/8=-3,42=1,46=1/14;
 5/5=2,8=3,17=40,22=13,38=1/8(-2);
 6/7=2,8=2,9=2,10=2,28=1/1;
 99/5=1,9=1/99;
 Leave Link    1 at Sat Aug  2 15:31:44 2025, MaxMem=           0 cpu:               0.6 elap:               0.0
 (Enter /home/hhratchian/gaussian/gdv-20250101-j30+/gdv/local/l101.exe)
 
  Hrant - IAPOps =                         0
  Hrant - IAPOp1 =                         0
  Hrant - IAPOp2 =                         0
  Hrant - DoAP   =   F
 
 -------------------------------
 Initial Stability Check for H2O
 -------------------------------
 Symbolic Z-matrix:
 Charge =     0 Multiplicity =     1
 O                     0.        0.        0. 
 H                     0.7586    0.        0.50428 
 H                    -0.7586    0.        0.50428 
 
 ITRead=  0  0  0
 MicOpt= -1 -1 -1
 NAtoms=      3 NQM=        3 NQMF=       0 NMMI=      0 NMMIF=      0
                NMic=       0 NMicF=      0.
                    Isotopes and Nuclear Properties:
 (Nuclear quadrupole moments (NQMom) in fm**2, nuclear magnetic moments (NMagM)
  in nuclear magnetons)

  Atom         1           2           3
 IAtWgt=          16           1           1
 AtmWgt=  15.9949146   1.0078250   1.0078250
 NucSpn=           0           1           1
 AtZEff=   -0.000000   -0.000000   -0.000000
 NQMom=    0.0000000   0.0000000   0.0000000
 NMagM=    0.0000000   2.7928460   2.7928460
 AtZNuc=   8.0000000   1.0000000   1.0000000
 Leave Link  101 at Sat Aug  2 15:31:44 2025, MaxMem= 12348030976 cpu:               2.6 elap:               0.1
 (Enter /home/hhratchian/gaussian/gdv-20250101-j30+/gdv/l202.exe)
                          Input orientation:                          
 ---------------------------------------------------------------------
 Center     Atomic      Atomic             Coordinates (Angstroms)
 Number     Number       Type             X           Y           Z
 ---------------------------------------------------------------------
      1          8           0        0.000000    0.000000    0.000000
      2          1           0        0.758602    0.000000    0.504284
      3          1           0       -0.758602   -0.000000    0.504284
 ---------------------------------------------------------------------
                    Distance matrix (angstroms):
                    1          2          3
     1  O    0.000000
     2  H    0.910922   0.000000
     3  H    0.910922   1.517204   0.000000
 Stoichiometry    H2O
 Framework group  C2V[C2(O),SGV(H2)]
 Deg. of freedom     2
 Full point group                 C2V     NOp   4
 Largest Abelian subgroup         C2V     NOp   4
 Largest concise Abelian subgroup C2      NOp   2
                         Standard orientation:                         
 ---------------------------------------------------------------------
 Center     Atomic      Atomic             Coordinates (Angstroms)
 Number     Number       Type             X           Y           Z
 ---------------------------------------------------------------------
      1          8           0        0.000000    0.000000    0.100857
      2          1           0       -0.000000    0.758602   -0.403427
      3          1           0       -0.000000   -0.758602   -0.403427
 ---------------------------------------------------------------------
 Rotational constants (GHZ):        1110.1894251         435.6864908         312.8935057
 Leave Link  202 at Sat Aug  2 15:31:44 2025, MaxMem= 12348030976 cpu:               1.4 elap:               0.0
 (Enter /home/hhratchian/gaussian/gdv-20250101-j30+/gdv/local/l301.exe)
 General  basis read from cards:  (5D, 7F)
 Centers:       1      2      3
 aug-cc-pVTz
 ****
 ======================================================================================================
                                       Pseudopotential Parameters
 ======================================================================================================
  Center     Atomic      Valence      Angular      Power
  Number     Number     Electrons     Momentum     of R      Exponent        Coefficient   SO-Coeffient
 ======================================================================================================
    1          8
                                   No pseudopotential on this center.
    2          1
                                   No pseudopotential on this center.
    3          1
                                   No pseudopotential on this center.
 ======================================================================================================
 Ernie: Thresh=  0.10000D-02 Tol=  0.10000D-05 Strict=F.
 Ernie:  3 primitive shells out of 52 were deleted.
 There are    42 symmetry adapted cartesian basis functions of A1  symmetry.
 There are    12 symmetry adapted cartesian basis functions of A2  symmetry.
 There are    20 symmetry adapted cartesian basis functions of B1  symmetry.
 There are    31 symmetry adapted cartesian basis functions of B2  symmetry.
 There are    35 symmetry adapted basis functions of A1  symmetry.
 There are    12 symmetry adapted basis functions of A2  symmetry.
 There are    18 symmetry adapted basis functions of B1  symmetry.
 There are    27 symmetry adapted basis functions of B2  symmetry.
    92 basis functions,   126 primitive gaussians,   105 cartesian basis functions
     5 alpha electrons        5 beta electrons
       nuclear repulsion energy         9.6435792538 Hartrees.
 IExCor=   2004019 DFT=T Ex+Corr=CAM-B3LYP ScaHFX=  1.000000
 ScaDFX=  1.000000  1.000000  1.000000  0.810000  1.000000  0.000000
 ScaDFX=  0.000000  0.000000  0.000000  0.000000  0.000000  0.000000
 Grid=UltraFine IRanWt=     -1 IRanGd=            0 ICorTp=0 IEDCtl=  2004
 HFx  wShort=  0.000000 wLong=  0.330000 cFull=  0.190000 cShort=  0.000000 cLong=  0.460000
 DFx  wShort=  0.330000 wLong=  0.000000 cFull=  0.350000 cShort=  0.460000 cLong=  0.000000
 NAtoms=    3 NActive=    3 NUniq=    2 SFac= 2.25D+00 NAtFMM=   60 NAOKFM=F Big=F
 Integral buffers will be    131072 words long.
 Raffenetti 2 integral format.
 Two-electron integral symmetry is turned on.
 Leave Link  301 at Sat Aug  2 15:31:44 2025, MaxMem= 12348030976 cpu:               0.2 elap:               0.1
 (Enter /home/hhratchian/gaussian/gdv-20250101-j30+/gdv/l302.exe)
 NPDir=0 NMtPBC=     1 NCelOv=     1 NCel=       1 NClECP=     1 NCelD=      1
         NCelK=      1 NCelE2=     1 NClLst=     1 CellRange=     0.0.
 One-electron integrals computed using PRISM.
 One-electron integral symmetry used in STVInt
   4 Symmetry operations used in ECPInt.
 ECPInt:  NShTT=     528 NPrTT=    1270 LenC2=     529 LenP2D=    1253.
 LDataN:  DoStor=T MaxTD1= 6 Len=  172
 NBasis=    92 RedAO= T EigKep=  3.31D-04  NBF=    35    12    18    27
 NBsUse=    92 1.00D-06 EigRej= -1.00D+00 NBFU=    35    12    18    27
 Precomputing XC quadrature grid using
 IXCGrd=   9 Grid=UltraFine IRanWt=          -1 IRanGd=           0 AccXCQ= 0.00D+00.
 Generated NRdTot=       0 NPtTot=       73544 NUsed=           0 NTot=          64
 NSgBfM=   105   105   105   105   105 MxSgAt=     3 MxSgA2=     3 SizInc=   0.000
 NMBTot=      981 MaxBatPerAtom=       87 MaxMicBPerAtom=      341 NBfPt=             6212220.
 Leave Link  302 at Sat Aug  2 15:31:44 2025, MaxMem= 12348030976 cpu:               5.3 elap:               0.2
 (Enter /home/hhratchian/gaussian/gdv-20250101-j30+/gdv/l303.exe)
 DipDrv:  MaxL=1.
 Leave Link  303 at Sat Aug  2 15:31:44 2025, MaxMem= 12348030976 cpu:               0.4 elap:               0.0
 (Enter /home/hhratchian/gaussian/gdv-20250101-j30+/gdv/l401.exe)
 ExpMin= 2.53D-02 ExpMax= 1.53D+04 ExpMxC= 5.22D+02 IAcc=3 Grid=UltraFine AccDes= 0.00D+00
 Harris functional with IExCor=10009 and Grid=UltraFine diagonalized for initial guess.
 HarFok:  IExCor=   10009 AccDes= 0.00D+00 Grid=UltraFine IDoV= 1 UseB2=F ITyADJ=14 ICtDFT=  3500011
 FoFCou: FMM=F IPFlag=           0 FMFlag=      100000 FMFlg1=           0
         NFxFlg=           0 DoJE=T BraDBF=F KetDBF=T FulRan=T
         wScrn=  0.000000 ICntrl=       500 IOpCl=  0 I1Cent=   200000004 NGrid=           0
         NMat0=    1 NMatS0=      1 NMatT0=    0 NMatD0=    1 NMtDS0=    0 NMtDT0=    0
 Petite list used in FoFCou.
 Harris En= -76.4235934713223    
 JPrj=0 DoOrth=F DoCkMO=T.
 Mixing orbitals, IMix= 1 IMixAn=  0 NRI=1 NE=    5 Coef=  7.07106781D-01  7.07106781D-01
 Initial guess orbital symmetries:
       Occupied  (A1) (A1) (B2) (A1) (?A)
       Virtual   (?A) (B2) (A1) (B1) (A1) (B2) (B2) (A1) (A2) (A1)
                 (B1) (B2) (A1) (B2) (B2) (A1) (A1) (B1) (A2) (A1)
                 (A1) (B1) (B1) (B2) (A2) (B2) (A1) (B2) (A1) (B1)
                 (B2) (A1) (A2) (B2) (A2) (A1) (B1) (A1) (B2) (B2)
                 (A1) (B1) (A1) (A2) (A1) (B2) (B1) (A1) (B1) (B2)
                 (A1) (A2) (B2) (B2) (A1) (B1) (A2) (B2) (A1) (B1)
                 (A2) (A1) (B2) (B1) (A1) (B2) (B2) (A2) (A1) (B2)
                 (B1) (A1) (A1) (B2) (B1) (A1) (B1) (A1) (A2) (B1)
                 (A2) (B2) (A1) (B2) (A1) (B2) (A1)
 Leave Link  401 at Sat Aug  2 15:31:44 2025, MaxMem= 12348030976 cpu:               9.4 elap:               0.2
 (Enter /home/hhratchian/gaussian/gdv-20250101-j30+/gdv/local/l502.exe)
 Keep R1 ints in memory in symmetry-blocked form, NReq=70907897.
 FoFCou: FMM=F IPFlag=           0 FMFlag=           0 FMFlg1=           0
         NFxFlg=           0 DoJE=F BraDBF=F KetDBF=F FulRan=T
         wScrn=  0.000000 ICntrl=       600 IOpCl=  0 I1Cent=           0 NGrid=           0
         NMat0=    1 NMatS0=   4278 NMatT0=    0 NMatD0=    1 NMtDS0=    0 NMtDT0=    0
 Petite list used in FoFCou.
 Closed shell SCF:
 Using DIIS extrapolation, IDIIS=    10.
 NGot= 12348030976 LenX= 12345655041 LenY= 12345643575
 Requested convergence on RMS density matrix=1.00D-08 within 128 cycles.
 Requested convergence on MAX density matrix=1.00D-06.
 Requested convergence on             energy=1.00D-06.
 Level shift goal  0.100 maximum shift  0.100.
 No special actions if energy rises.
 Dynamic level shift is on during FON iterations.
 An orbital has undefined symmetry, so N**3 symmetry is turned off.
 
  Hrant - CycOpn.
 

 Cycle   1  Pass 1  IDiag  1:
 Density matrix breaks symmetry, PCut= 1.00D-04
 Density matrix has no symmetry -- integrals replicated.
 E= -76.0855761183209    
 DIIS: error= 5.80D-02 at cycle   1 NSaved=   1.
 NSaved= 1 IEnMin= 1 EnMin= -76.0855761183209     IErMin= 1 ErrMin= 5.80D-02
 ErrMax= 5.80D-02  0.00D+00 EMaxC= 1.00D+00 BMatC= 2.57D-02 BMatP= 2.57D-02
 Rises=F IDIUse=1 WtCom= 1.00D+00 WtEn= 0.00D+00
 Coeff-Com:  0.100D+01
 Coeff:      0.100D+01
 Gap=     0.136 Goal=     0.100 Shift=    0.000
 T= 1892. Gap= 0.446 NK=0 IS=    6 IE=   92 IFin=    5
          NO(<0.9)=   0  NV(>0.1)=   0      5.00e < EF      0.00e >EF  Err=0.0D+00
 GapD=    0.136 DampG=1.000 DampE=0.500 DampFc=0.5000 IDamp=-1.
 Damping current iteration by 5.00D-01
 RMSDP=4.75D-03 MaxDP=1.05D-01              OVMax= 5.89D-01

 Cycle   2  Pass 1  IDiag  1:
 Density matrix breaks symmetry, PCut= 1.00D-04
 Density matrix has no symmetry -- integrals replicated.
 E= -76.2274224287157     Delta-E=       -0.141846310395 Rises=F Damp=T AM=F Ri=F Fa=F
 DIIS: error= 3.11D-02 at cycle   2 NSaved=   2.
 NSaved= 2 IEnMin= 2 EnMin= -76.2274224287157     IErMin= 2 ErrMin= 3.11D-02
 ErrMax= 3.11D-02  0.00D+00 EMaxC= 1.00D+00 BMatC= 1.58D-02 BMatP= 2.57D-02
 Rises=F IDIUse=1 WtCom= 1.00D+00 WtEn= 0.00D+00
 Coeff-Com:  0.281D+00 0.719D+00
 Coeff:      0.281D+00 0.719D+00
 Gap=     0.373 Goal=     0.100 Shift=    0.000
 T= 1791. Gap= 0.372 NK=0 IS=    6 IE=   92 IFin=    5
          NO(<0.9)=   0  NV(>0.1)=   0      5.00e < EF      0.00e >EF  Err=0.0D+00
 GapD=    0.373 DampG=1.000 DampE=0.500 DampFc=0.5000 IDamp=-1.
 Damping current iteration by 5.00D-01
 RMSDP=2.52D-03 MaxDP=4.00D-02 DE=-1.42D-01 OVMax= 6.16D-02

 Cycle   3  Pass 1  IDiag  1:
 Density matrix breaks symmetry, PCut= 1.00D-04
 Density matrix has no symmetry -- integrals replicated.
 E= -76.3150150282132     Delta-E=       -0.087592599497 Rises=F Damp=T AM=F Ri=F Fa=F
 DIIS: error= 2.09D-02 at cycle   3 NSaved=   3.
 NSaved= 3 IEnMin= 3 EnMin= -76.3150150282132     IErMin= 3 ErrMin= 2.09D-02
 ErrMax= 2.09D-02  0.00D+00 EMaxC= 1.00D+00 BMatC= 8.19D-03 BMatP= 1.58D-02
 Rises=F IDIUse=1 WtCom= 1.00D+00 WtEn= 0.00D+00
 Coeff-Com:  0.203D+00-0.174D+01 0.254D+01
 Coeff:      0.203D+00-0.174D+01 0.254D+01
 Gap=     0.374 Goal=     0.100 Shift=    0.000
 T= 1617. Gap= 0.374 NK=0 IS=    6 IE=   92 IFin=    5
          NO(<0.9)=   0  NV(>0.1)=   0      5.00e < EF      0.00e >EF  Err=0.0D+00
 GapD=    0.374 DampG=1.000 DampE=0.500 DampFc=0.5000 IDamp=-1.
 Damping current iteration by 5.00D-01
 RMSDP=2.03D-03 MaxDP=2.90D-02 DE=-8.76D-02 OVMax= 1.02D-01

 Cycle   4  Pass 1  IDiag  1:
 Density matrix breaks symmetry, PCut= 1.00D-04
 Density matrix has no symmetry -- integrals replicated.
 E= -76.3688882669922     Delta-E=       -0.053873238779 Rises=F Damp=T AM=F Ri=F Fa=F
 DIIS: error= 1.29D-02 at cycle   4 NSaved=   4.
 NSaved= 4 IEnMin= 4 EnMin= -76.3688882669922     IErMin= 4 ErrMin= 1.29D-02
 ErrMax= 1.29D-02  0.00D+00 EMaxC= 1.00D+00 BMatC= 1.49D-03 BMatP= 8.19D-03
 Rises=F IDIUse=1 WtCom= 1.00D+00 WtEn= 0.00D+00
 Coeff-Com: -0.175D+00 0.486D+00-0.135D+01 0.204D+01
 Coeff:     -0.175D+00 0.486D+00-0.135D+01 0.204D+01
 Gap=     0.397 Goal=     0.100 Shift=    0.000
 T= 1300. Gap= 0.397 NK=0 IS=    6 IE=   92 IFin=    5
          NO(<0.9)=   0  NV(>0.1)=   0      5.00e < EF      0.00e >EF  Err=0.0D+00
 GapD=    0.397 DampG=1.000 DampE=0.500 DampFc=0.5000 IDamp=-1.
 Damping current iteration by 5.00D-01
 RMSDP=1.10D-03 MaxDP=1.70D-02 DE=-5.39D-02 OVMax= 3.16D-02

 Cycle   5  Pass 1  IDiag  1:
 Density matrix breaks symmetry, PCut= 1.00D-04
 Density matrix has no symmetry -- integrals replicated.
 E= -76.3989585000906     Delta-E=       -0.030070233098 Rises=F Damp=T AM=F Ri=F Fa=F
 DIIS: error= 7.07D-03 at cycle   5 NSaved=   5.
 NSaved= 5 IEnMin= 5 EnMin= -76.3989585000906     IErMin= 5 ErrMin= 7.07D-03
 ErrMax= 7.07D-03  0.00D+00 EMaxC= 1.00D+00 BMatC= 4.01D-04 BMatP= 1.49D-03
 Rises=F IDIUse=1 WtCom= 1.00D+00 WtEn= 0.00D+00
 Coeff-Com:  0.229D-02 0.119D-01 0.112D+00-0.152D+01 0.240D+01
 Coeff:      0.229D-02 0.119D-01 0.112D+00-0.152D+01 0.240D+01
 Gap=     0.399 Goal=     0.100 Shift=    0.000
 T= 1023. Gap= 0.399 NK=0 IS=    6 IE=   92 IFin=    5
          NO(<0.9)=   0  NV(>0.1)=   0      5.00e < EF      0.00e >EF  Err=0.0D+00
 GapD=    0.399 DampG=1.000 DampE=1.000 DampFc=1.0000 IDamp=-1.
 RMSDP=6.23D-04 MaxDP=1.09D-02 DE=-3.01D-02 OVMax= 1.23D-02

 Cycle   6  Pass 1  IDiag  1:
 Density matrix breaks symmetry, PCut= 1.00D-04
 Density matrix has no symmetry -- integrals replicated.
 E= -76.4323247802594     Delta-E=       -0.033366280169 Rises=F Damp=F AM=F Ri=F Fa=F
 DIIS: error= 1.95D-04 at cycle   6 NSaved=   6.
 NSaved= 6 IEnMin= 6 EnMin= -76.4323247802594     IErMin= 6 ErrMin= 1.95D-04
 ErrMax= 1.95D-04  0.00D+00 EMaxC= 1.00D+00 BMatC= 5.91D-07 BMatP= 4.01D-04
 Rises=F IDIUse=1 WtCom= 1.00D+00 WtEn= 0.00D+00
 Coeff-Com:  0.159D-02-0.179D-01 0.488D-01-0.710D-01 0.390D-01 0.100D+01
 Coeff:      0.159D-02-0.179D-01 0.488D-01-0.710D-01 0.390D-01 0.100D+01
 Gap=     0.400 Goal=     0.100 Shift=    0.000
 RMSDP=1.43D-05 MaxDP=3.84D-04 DE=-3.34D-02 OVMax= 8.88D-04

 Cycle   7  Pass 1  IDiag  1:
 Density matrix breaks symmetry, PCut= 1.00D-04
 Density matrix has no symmetry -- integrals replicated.
 E= -76.4323264290406     Delta-E=       -0.000001648781 Rises=F Damp=F AM=F Ri=F Fa=F
 DIIS: error= 7.36D-05 at cycle   7 NSaved=   7.
 NSaved= 7 IEnMin= 7 EnMin= -76.4323264290406     IErMin= 7 ErrMin= 7.36D-05
 ErrMax= 7.36D-05  0.00D+00 EMaxC= 1.00D+00 BMatC= 1.08D-07 BMatP= 5.91D-07
 Rises=F IDIUse=1 WtCom= 1.00D+00 WtEn= 0.00D+00
 Coeff-Com:  0.187D-03-0.185D-02 0.702D-02 0.403D-01-0.886D-01 0.709D-02
 Coeff-Com:  0.104D+01
 Coeff:      0.187D-03-0.185D-02 0.702D-02 0.403D-01-0.886D-01 0.709D-02
 Coeff:      0.104D+01
 Gap=     0.400 Goal=     0.100 Shift=    0.000
 RMSDP=3.79D-06 MaxDP=6.39D-05 DE=-1.65D-06 OVMax= 2.28D-04

 Cycle   8  Pass 1  IDiag  1:
 E= -76.4323189313067     Delta-E=        0.000007497734 Rises=F Damp=F AM=T Ri=T Fa=F
 DIIS: error= 3.22D-05 at cycle   8 NSaved=   8.
 NSaved= 8 IEnMin= 7 EnMin= -76.4323264290406     IErMin= 8 ErrMin= 3.22D-05
 ErrMax= 3.22D-05  0.00D+00 EMaxC= 1.00D+00 BMatC= 2.00D-08 BMatP= 1.08D-07
 Rises=T IDIUse=1 WtCom= 1.00D+00 WtEn= 0.00D+00
 Coeff-Com: -0.896D-04 0.806D-03-0.311D-02 0.106D-01-0.130D-01-0.217D-01
 Coeff-Com:  0.249D+00 0.778D+00
 Coeff:     -0.896D-04 0.806D-03-0.311D-02 0.106D-01-0.130D-01-0.217D-01
 Coeff:      0.249D+00 0.778D+00
 Gap=     0.400 Goal=   None    Shift=    0.000
 RMSDP=1.01D-06 MaxDP=2.10D-05 DE= 7.50D-06 OVMax= 6.98D-05

 Cycle   9  Pass 1  IDiag  1:
 E= -76.4323265337969     Delta-E=       -0.000007602490 Rises=F Damp=F AM=F Ri=F Fa=F
 DIIS: error= 1.97D-06 at cycle   9 NSaved=   9.
 NSaved= 9 IEnMin= 9 EnMin= -76.4323265337969     IErMin= 9 ErrMin= 1.97D-06
 ErrMax= 1.97D-06  0.00D+00 EMaxC= 1.00D+00 BMatC= 7.25D-11 BMatP= 2.00D-08
 Rises=F IDIUse=1 WtCom= 1.00D+00 WtEn= 0.00D+00
 Coeff-Com: -0.460D-05-0.108D-04 0.350D-04-0.160D-03 0.289D-03 0.470D-03
 Coeff-Com: -0.926D-02-0.902D-01 0.110D+01
 Coeff:     -0.460D-05-0.108D-04 0.350D-04-0.160D-03 0.289D-03 0.470D-03
 Coeff:     -0.926D-02-0.902D-01 0.110D+01
 Gap=     0.400 Goal=     0.100 Shift=    0.000
 RMSDP=1.52D-07 MaxDP=4.62D-06 DE=-7.60D-06 OVMax= 8.78D-06

 Cycle  10  Pass 1  IDiag  1:
 E= -76.4323266118109     Delta-E=       -0.000000078014 Rises=F Damp=F AM=F Ri=F Fa=F
 DIIS: error= 1.75D-07 at cycle  10 NSaved=  10.
 NSaved=10 IEnMin=10 EnMin= -76.4323266118109     IErMin=10 ErrMin= 1.75D-07
 ErrMax= 1.75D-07  0.00D+00 EMaxC= 1.00D+00 BMatC= 7.31D-13 BMatP= 7.25D-11
 Rises=F IDIUse=1 WtCom= 1.00D+00 WtEn= 0.00D+00
 Coeff-Com: -0.214D-05 0.103D-04-0.127D-04-0.663D-04 0.138D-03-0.401D-04
 Coeff-Com: -0.216D-02 0.726D-02-0.120D+00 0.111D+01
 Coeff:     -0.214D-05 0.103D-04-0.127D-04-0.663D-04 0.138D-03-0.401D-04
 Coeff:     -0.216D-02 0.726D-02-0.120D+00 0.111D+01
 Gap=     0.400 Goal=     0.100 Shift=    0.000
 RMSDP=1.43D-08 MaxDP=2.26D-07 DE=-7.80D-08 OVMax= 1.12D-06

 Cycle  11  Pass 1  IDiag  1:
 E= -76.4323266393289     Delta-E=       -0.000000027518 Rises=F Damp=F AM=F Ri=F Fa=F
 DIIS: error= 2.58D-08 at cycle  11 NSaved=  11.
 NSaved=11 IEnMin=11 EnMin= -76.4323266393289     IErMin=11 ErrMin= 2.58D-08
 ErrMax= 2.58D-08  0.00D+00 EMaxC= 1.00D+00 BMatC= 8.25D-15 BMatP= 7.31D-13
 Rises=F IDIUse=1 WtCom= 1.00D+00 WtEn= 0.00D+00
 Coeff-Com:  0.203D-06-0.199D-05 0.381D-05 0.269D-05-0.969D-05 0.515D-04
 Coeff-Com: -0.631D-04-0.523D-03-0.421D-02-0.171D+00 0.118D+01
 Coeff:      0.203D-06-0.199D-05 0.381D-05 0.269D-05-0.969D-05 0.515D-04
 Coeff:     -0.631D-04-0.523D-03-0.421D-02-0.171D+00 0.118D+01
 Gap=     0.400 Goal=     0.100 Shift=    0.000
 RMSDP=2.86D-09 MaxDP=5.30D-08 DE=-2.75D-08 OVMax= 2.16D-07

 SCF Done:  E(RCAM-B3LYP) =  -76.4323266393     A.U. after   11 cycles
            NFock= 11  Conv=0.29D-08     -V/T= 2.0030
 KE=          76.207266 PE=        -200.040489 EE=          37.757318
 Leave Link  502 at Sat Aug  2 15:31:45 2025, MaxMem= 12348030976 cpu:              30.2 elap:               0.8
 (Enter /home/hhratchian/gaussian/gdv-20250101-j30+/gdv/l601.exe)
 Copying SCF densities to generalized density rwf, IOpCl= 0 IROHF=0.
 
 **********************************************************************
 
               Population analysis using the SCF Density.
 
 **********************************************************************
 
 Orbital symmetries:
       Occupied  (A1) (A1) (B2) (A1) (B1)
       Virtual   (A1) (B2) (A1) (B1) (A1) (B2) (B2) (A1) (A2) (B1)
                 (A1) (B2) (A1) (B2) (B2) (A1) (A1) (A2) (B1) (A1)
                 (B1) (A1) (B1) (B2) (A2) (B2) (A1) (A1) (B2) (B1)
                 (B2) (A1) (A2) (B2) (A2) (A1) (B1) (A1) (B2) (B2)
                 (A1) (B1) (A1) (A2) (A1) (B1) (B2) (A1) (B2) (B1)
                 (A1) (A2) (B2) (B2) (A1) (B1) (A2) (B2) (A1) (B1)
                 (A2) (A1) (B1) (B2) (A1) (B2) (B2) (A2) (B2) (A1)
                 (B1) (A1) (A1) (B2) (B1) (A1) (B1) (A1) (A2) (B1)
                 (A2) (B2) (A1) (B2) (A1) (B2) (A1)
 The electronic state is 1-A1.
 Alpha  occ. eigenvalues --      -19.20077      -1.11712      -0.64402      -0.45820      -0.39601
 Alpha virt. eigenvalues --        0.00402       0.03420       0.10232       0.12026       0.13084
 Alpha virt. eigenvalues --        0.14536       0.18770       0.20139       0.22050       0.26295
 Alpha virt. eigenvalues --        0.26680       0.33253       0.37751       0.40042       0.51941
 Alpha virt. eigenvalues --        0.56242       0.62201       0.63177       0.63379       0.74560
 Alpha virt. eigenvalues --        0.76085       0.77279       0.81915       0.82606       0.83638
 Alpha virt. eigenvalues --        0.84793       0.89184       0.94147       0.94971       0.97840
 Alpha virt. eigenvalues --        1.04488       1.09337       1.09537       1.14185       1.40173
 Alpha virt. eigenvalues --        1.43979       1.49318       1.60826       1.64531       1.89216
 Alpha virt. eigenvalues --        1.96251       2.05696       2.11520       2.13786       2.20357
 Alpha virt. eigenvalues --        2.22307       2.22595       2.27022       2.48013       2.49091
 Alpha virt. eigenvalues --        2.60643       2.69800       2.72098       3.45123       3.58514
 Alpha virt. eigenvalues --        3.79993       3.80873       4.03813       4.05954       4.13230
 Alpha virt. eigenvalues --        4.17115       4.20836       4.22760       4.23153       4.39800
 Alpha virt. eigenvalues --        4.55375       4.95969       5.03042       5.16925       5.17564
 Alpha virt. eigenvalues --        5.29926       5.49144       5.85308       6.14522       6.33069
 Alpha virt. eigenvalues --        6.50622       6.70174       6.80803       6.88128       6.96976
 Alpha virt. eigenvalues --        7.05032       7.19162       7.30738       7.62519       7.71935
 Alpha virt. eigenvalues --        8.51637      16.72046
          Condensed to atoms (all electrons):
               1          2          3
     1  O    7.653298   0.292803   0.292803
     2  H    0.292803   0.623134  -0.035388
     3  H    0.292803  -0.035388   0.623134
 Mulliken charges:
               1
     1  O   -0.238904
     2  H    0.119452
     3  H    0.119452
 Sum of Mulliken charges=  -0.00000
 Mulliken charges with hydrogens summed into heavy atoms:
               1
     1  O   -0.000000
 Electronic spatial extent (au):  <R**2>=             19.4422
 Charge=             -0.0000 electrons
 Dipole moment (field-independent basis, Debye):
    X=             -0.0000    Y=              0.0000    Z=             -1.7331  Tot=              1.7331
 Quadrupole moment (field-independent basis, Debye-Ang):
   XX=             -7.7104   YY=             -4.2738   ZZ=             -6.6837
   XY=              0.0000   XZ=              0.0000   YZ=             -0.0000
 Traceless Quadrupole moment (field-independent basis, Debye-Ang):
   XX=             -1.4877   YY=              1.9488   ZZ=             -0.4611
   XY=              0.0000   XZ=              0.0000   YZ=             -0.0000
 Octapole moment (field-independent basis, Debye-Ang**2):
  XXX=              0.0000  YYY=              0.0000  ZZZ=             -0.9389  XYY=             -0.0000
  XXY=              0.0000  XXZ=             -0.2316  XZZ=              0.0000  YZZ=              0.0000
  YYZ=             -1.2036  XYZ=             -0.0000
 Hexadecapole moment (field-independent basis, Debye-Ang**3):
 XXXX=             -7.6504 YYYY=             -6.1807 ZZZZ=             -7.7657 XXXY=             -0.0000
 XXXZ=             -0.0000 YYYX=             -0.0000 YYYZ=             -0.0000 ZZZX=             -0.0000
 ZZZY=              0.0000 XXYY=             -2.6529 XXZZ=             -2.5956 YYZZ=             -2.1801
 XXYZ=             -0.0000 YYXZ=              0.0000 ZZXY=             -0.0000
 N-N=           9.643579 E-N=        -200.040489  KE=          76.207266
 Symmetry A1   KE=          67.905377
 Symmetry A2   KE=           0.000000
 Symmetry B1   KE=           4.510553
 Symmetry B2   KE=           3.791336
 No NMR shielding tensors so no spin-rotation constants.
 Leave Link  601 at Sat Aug  2 15:31:45 2025, MaxMem= 12348030976 cpu:               6.1 elap:               0.2
 (Enter /home/hhratchian/gaussian/gdv-20250101-j30+/gdv/l801.exe)
 DoSCS=F DFT=T ScalE2(SS,OS)=  1.000000  1.000000
 Range of M.O.s used for correlation:     1    92
 NBasis=    92 NAE=     5 NBE=     5 NFC=     0 NFV=     0
 NROrb=     92 NOA=     5 NOB=     5 NVA=    87 NVB=    87

 **** Warning!!: The largest alpha MO coefficient is  0.16547611D+02

 Leave Link  801 at Sat Aug  2 15:31:45 2025, MaxMem= 12348030976 cpu:               1.3 elap:               0.1
 (Enter /home/hhratchian/gaussian/gdv-20250101-j30+/gdv/l914.exe)
 RHF ground state
 Doing stability rather than CIS.
 DoSCS=F DFT=T ScalE2(SS,OS)=  1.000000  1.000000
   ScalD2(USS,UOS,TSS,TOS,w)=  1.000000  1.000000  1.000000  1.000000  1.000000
 Keep R1 and R2 ints in memory in symmetry-blocked form, NReq=133689116.
 FoFCou: FMM=F IPFlag=           0 FMFlag=           0 FMFlg1=           0
         NFxFlg=           0 DoJE=F BraDBF=F KetDBF=F FulRan=T
         wScrn=  0.000000 ICntrl=       600 IOpCl=  0 I1Cent=           0 NGrid=           0
         NMat0=    1 NMatS0=   4278 NMatT0=    0 NMatD0=    1 NMtDS0=    0 NMtDT0=    0
 Petite list used in FoFCou.
 MDV= 12348030976 DFT=T IDoStb=1 Mixed=T DoRPA=F DoScal=F NonHer=F
 Making orbital integer symmetry assigments:
 Orbital symmetries:
       Occupied  (A1) (A1) (B2) (A1) (B1)
       Virtual   (A1) (B2) (A1) (B1) (A1) (B2) (B2) (A1) (A2) (B1)
                 (A1) (B2) (A1) (B2) (B2) (A1) (A1) (A2) (B1) (A1)
                 (B1) (A1) (B1) (B2) (A2) (B2) (A1) (A1) (B2) (B1)
                 (B2) (A1) (A2) (B2) (A2) (A1) (B1) (A1) (B2) (B2)
                 (A1) (B1) (A1) (A2) (A1) (B1) (B2) (A1) (B2) (B1)
                 (A1) (A2) (B2) (B2) (A1) (B1) (A2) (B2) (A1) (B1)
                 (A2) (A1) (B1) (B2) (A1) (B2) (B2) (A2) (B2) (A1)
                 (B1) (A1) (A1) (B2) (B1) (A1) (B1) (A1) (A2) (B1)
                 (A2) (B2) (A1) (B2) (A1) (B2) (A1)
    24 initial guesses have been made.
 Convergence on wavefunction:    0.001000000000000
 Davidson Disk Diagonalization:  ConvIn= 1.00D-03 SkipCon=T Conv= 1.00D-03.
 Max sub-space:  1740 initial roots:    24 roots to seek:     1 dimension of matrix:          870
 Iteration     1 Dimension    24 NMult     0 NNew     24
 CISAX will form    24 AO SS matrices at one time.
 NMat=    24 NSing=    12 JSym2X= 2.
 New state      1 was old state      2
 Excitation Energies [eV] at current iteration:
 Root      1 :     7.075714208042204
 Root      2 :     7.583812184248081
 Root      3 :     8.794704473030624
 Root      4 :     8.819142145101148
 Root      5 :     8.893771724858546
 Root      6 :     9.345738926958910
 Root      7 :    10.120666934111025
 Root      8 :    10.247884459312589
 Root      9 :    10.333372740249041
 Root     10 :    10.857606972555340
 Root     11 :    10.874382153162877
 Root     12 :    10.897839831917331
 Root     13 :    11.161839207827448
 Root     14 :    11.188208152197305
 Root     15 :    11.425357067918394
 Root     16 :    11.603925328620546
 Root     17 :    11.746492386063199
 Root     18 :    12.051698791444609
 Root     19 :    12.158931203172280
 Root     20 :    12.185278631718001
 Root     21 :    12.195421334292819
 Root     22 :    12.542491688167013
 Root     23 :    12.856923684733577
 Root     24 :    14.639377551036583
 Iteration     2 Dimension    48 NMult    24 NNew     24
 CISAX will form    24 AO SS matrices at one time.
 NMat=    24 NSing=    12 JSym2X= 2.
 Root      1 not converged, maximum delta is    0.098332793104663
 Excitation Energies [eV] at current iteration:
 Root      1 :     6.821252509488050   Change is   -0.254461698554154
 Root      2 :     7.536868272695722   Change is   -0.046943911552358
 Root      3 :     8.499600948826460   Change is   -0.295103524204165
 Root      4 :     8.646826495846380   Change is   -0.172315649254769
 Root      5 :     8.857381161842683   Change is   -0.036390563015862
 Root      6 :     9.262642011790680   Change is   -0.083096915168230
 Root      7 :     9.624047171392279   Change is   -0.496619762718746
 Root      8 :     9.971619530776419   Change is   -0.276264928536169
 Root      9 :    10.214690768875732   Change is   -0.118681971373309
 Root     10 :    10.335119691756351   Change is   -0.539262461406527
 Root     11 :    10.600410286494375   Change is   -0.257196686060965
 Root     12 :    10.645815614530711   Change is   -0.252024217386619
 Root     13 :    10.851398171457946   Change is   -0.310441036369502
 Root     14 :    11.052590476647511   Change is   -0.372766591270884
 Root     15 :    11.076518084067215   Change is   -0.111690068130089
 Root     16 :    11.272890247648053   Change is   -0.473602138415146
 Root     17 :    11.448894386632787   Change is   -0.155030941987760
 Root     18 :    11.856031519203739   Change is   -0.195667272240868
 Root     19 :    12.067213083002816   Change is   -0.128208251290003
 Root     20 :    12.074358366706534   Change is   -0.084572836465746
 Root     21 :    12.108011786477592   Change is   -0.077266845240409
 Root     22 :    12.272675568365669   Change is   -0.269816119801345
 Root     23 :    12.476750652054786   Change is   -2.162626898981798
 Root     24 :    12.839636927336517   Change is   -0.017286757397058
 Iteration     3 Dimension    54 NMult    48 NNew      6
 CISAX will form     6 AO SS matrices at one time.
 NMat=     6 NSing=     3 JSym2X= 2.
 Root      1 not converged, maximum delta is    0.003022765568904
 Excitation Energies [eV] at current iteration:
 Root      1 :     6.819809296576267   Change is   -0.001443212911783
 Root      2 :     7.535840021234567   Change is   -0.001028251461155
 Root      3 :     8.486084834504593   Change is   -0.013516114321866
 Root      4 :     8.645308770823009   Change is   -0.001517725023371
 Root      5 :     8.857006068983605   Change is   -0.000375092859078
 Root      6 :     9.259104152264111   Change is   -0.003537859526569
 Iteration     4 Dimension    60 NMult    54 NNew      6
 CISAX will form     6 AO SS matrices at one time.
 NMat=     6 NSing=     3 JSym2X= 2.
 Root      1 has converged.
 Excitation Energies [eV] at current iteration:
 Root      1 :     6.819792043778949   Change is   -0.000017252797319
 Root      2 :     7.535821468106067   Change is   -0.000018553128500
 Root      3 :     8.485193630999474   Change is   -0.000891203505120
 Root      4 :     8.645292378796167   Change is   -0.000016392026840
 Root      5 :     8.857002564169592   Change is   -0.000003504814013
 Root      6 :     9.258926913610566   Change is   -0.000177238653546
 Convergence achieved on expansion vectors.
 1PDM for each excited state written to RWF  633
 Ground to excited state transition densities written to RWF  633

 ***********************************************************************
 Stability analysis using <AA,BB:AA,BB> singles matrix:
 ***********************************************************************

 Eigenvectors of the stability matrix:
 
 Eigenvector   1:      Triplet-B1   Eigenvalue= 0.2506227  <S**2>=2.000
       5 ->  6         0.63643
       5 ->  8        -0.22216
       5 -> 10        -0.18286
 The wavefunction is stable under the perturbations considered.
 Leave Link  914 at Sat Aug  2 15:31:47 2025, MaxMem= 12348030976 cpu:             103.8 elap:               2.1
 (Enter /home/hhratchian/gaussian/gdv-20250101-j30+/gdv/l508.exe)
 The wavefunction is already stable.
 Leave Link  508 at Sat Aug  2 15:31:47 2025, MaxMem= 12348030976 cpu:               0.1 elap:               0.0
 (Enter /home/hhratchian/gaussian/gdv-20250101-j30+/gdv/l601.exe)
 Copying SCF densities to generalized density rwf, IOpCl= 0 IROHF=0.
 
 **********************************************************************
 
               Population analysis using the SCF Density.
 
 **********************************************************************
 
 Orbital symmetries:
       Occupied  (A1) (A1) (B2) (A1) (B1)
       Virtual   (A1) (B2) (A1) (B1) (A1) (B2) (B2) (A1) (A2) (B1)
                 (A1) (B2) (A1) (B2) (B2) (A1) (A1) (A2) (B1) (A1)
                 (B1) (A1) (B1) (B2) (A2) (B2) (A1) (A1) (B2) (B1)
                 (B2) (A1) (A2) (B2) (A2) (A1) (B1) (A1) (B2) (B2)
                 (A1) (B1) (A1) (A2) (A1) (B1) (B2) (A1) (B2) (B1)
                 (A1) (A2) (B2) (B2) (A1) (B1) (A2) (B2) (A1) (B1)
                 (A2) (A1) (B1) (B2) (A1) (B2) (B2) (A2) (B2) (A1)
                 (B1) (A1) (A1) (B2) (B1) (A1) (B1) (A1) (A2) (B1)
                 (A2) (B2) (A1) (B2) (A1) (B2) (A1)
 The electronic state is 1-A1.
 Alpha  occ. eigenvalues --      -19.20077      -1.11712      -0.64402      -0.45820      -0.39601
 Alpha virt. eigenvalues --        0.00402       0.03420       0.10232       0.12026       0.13084
 Alpha virt. eigenvalues --        0.14536       0.18770       0.20139       0.22050       0.26295
 Alpha virt. eigenvalues --        0.26680       0.33253       0.37751       0.40042       0.51941
 Alpha virt. eigenvalues --        0.56242       0.62201       0.63177       0.63379       0.74560
 Alpha virt. eigenvalues --        0.76085       0.77279       0.81915       0.82606       0.83638
 Alpha virt. eigenvalues --        0.84793       0.89184       0.94147       0.94971       0.97840
 Alpha virt. eigenvalues --        1.04488       1.09337       1.09537       1.14185       1.40173
 Alpha virt. eigenvalues --        1.43979       1.49318       1.60826       1.64531       1.89216
 Alpha virt. eigenvalues --        1.96251       2.05696       2.11520       2.13786       2.20357
 Alpha virt. eigenvalues --        2.22307       2.22595       2.27022       2.48013       2.49091
 Alpha virt. eigenvalues --        2.60643       2.69800       2.72098       3.45123       3.58514
 Alpha virt. eigenvalues --        3.79993       3.80873       4.03813       4.05954       4.13230
 Alpha virt. eigenvalues --        4.17115       4.20836       4.22760       4.23153       4.39800
 Alpha virt. eigenvalues --        4.55375       4.95969       5.03042       5.16925       5.17564
 Alpha virt. eigenvalues --        5.29926       5.49144       5.85308       6.14522       6.33069
 Alpha virt. eigenvalues --        6.50622       6.70174       6.80803       6.88128       6.96976
 Alpha virt. eigenvalues --        7.05032       7.19162       7.30738       7.62519       7.71935
 Alpha virt. eigenvalues --        8.51637      16.72046
          Condensed to atoms (all electrons):
               1          2          3
     1  O    7.653298   0.292803   0.292803
     2  H    0.292803   0.623134  -0.035388
     3  H    0.292803  -0.035388   0.623134
 Mulliken charges:
               1
     1  O   -0.238904
     2  H    0.119452
     3  H    0.119452
 Sum of Mulliken charges=  -0.00000
 Mulliken charges with hydrogens summed into heavy atoms:
               1
     1  O   -0.000000
 Electronic spatial extent (au):  <R**2>=             19.4422
 Charge=             -0.0000 electrons
 Dipole moment (field-independent basis, Debye):
    X=             -0.0000    Y=              0.0000    Z=             -1.7331  Tot=              1.7331
 Quadrupole moment (field-independent basis, Debye-Ang):
   XX=             -7.7104   YY=             -4.2738   ZZ=             -6.6837
   XY=              0.0000   XZ=              0.0000   YZ=             -0.0000
 Traceless Quadrupole moment (field-independent basis, Debye-Ang):
   XX=             -1.4877   YY=              1.9488   ZZ=             -0.4611
   XY=              0.0000   XZ=              0.0000   YZ=             -0.0000
 Octapole moment (field-independent basis, Debye-Ang**2):
  XXX=              0.0000  YYY=              0.0000  ZZZ=             -0.9389  XYY=             -0.0000
  XXY=              0.0000  XXZ=             -0.2316  XZZ=              0.0000  YZZ=              0.0000
  YYZ=             -1.2036  XYZ=             -0.0000
 Hexadecapole moment (field-independent basis, Debye-Ang**3):
 XXXX=             -7.6504 YYYY=             -6.1807 ZZZZ=             -7.7657 XXXY=             -0.0000
 XXXZ=             -0.0000 YYYX=             -0.0000 YYYZ=             -0.0000 ZZZX=             -0.0000
 ZZZY=              0.0000 XXYY=             -2.6529 XXZZ=             -2.5956 YYZZ=             -2.1801
 XXYZ=             -0.0000 YYXZ=              0.0000 ZZXY=             -0.0000
 N-N=           9.643579 E-N=        -200.040489  KE=          76.207266
 Symmetry A1   KE=          67.905377
 Symmetry A2   KE=           0.000000
 Symmetry B1   KE=           4.510553
 Symmetry B2   KE=           3.791336
 No NMR shielding tensors so no spin-rotation constants.
 Leave Link  601 at Sat Aug  2 15:31:48 2025, MaxMem= 12348030976 cpu:               6.4 elap:               0.2
 (Enter /home/hhratchian/gaussian/gdv-20250101-j30+/gdv/local/l9999.exe)
 Unable to Open any file for archive entry.
 1\1\GINC-HMNODE006\Stability\RCAM-B3LYP\GenECP\H2O1\AABOUTAKA\02-Aug-2
 025\0\\#P CAM-B3LYP/genecp SCF=(fermi,novaracc) Guess=Mix Stable=Opt\\
 Initial Stability Check for H2O\\0,1\O,0,0.,0.,0.\H,0,0.758602,0.,0.50
 4284\H,0,-0.758602,0.,0.504284\\Version=ES64L-GDVRevJ.30+\State=1-A1\H
 F=-76.4323266\RMSD=2.859e-09\Dipole=0.,0.,0.6818455\Quadrupole=1.44891
 36,-1.1060999,-0.3428138,0.,0.,0.\PG=C02V [C2(O1),SGV(H2)]\\@
 The archive entry for this job was punched.


 MEN HAVE BECOME THE TOOLS OF THEIR TOOLS... THOREAU   
 Job cpu time:       0 days  0 hours  2 minutes 50.9 seconds.
 Elapsed time:       0 days  0 hours  0 minutes  4.0 seconds.
 File lengths (MBytes):  RWF=     87 Int=      0 D2E=      0 Chk=      3 Scr=      2
 Normal termination of Gaussian DV at Sat Aug  2 15:31:48 2025.
 Initial command:
 /home/hhratchian/gaussian/gdv-20250101-j30+/gdv/local/l1.exe "/scratch/aaboutaka/1562793/Gau-35452.inp" -scrdir="/scratch/aaboutaka/1562793/"
 Default is to use a total of  56 processors:
                               56 via shared-memory
                                1 via Linda
 Entering Link 1 = /home/hhratchian/gaussian/gdv-20250101-j30+/gdv/local/l1.exe PID=     36224.
  
 Copyright (c) 1988-2024, Gaussian, Inc.  All Rights Reserved.
  
 This is the private, development version of
 the Gaussian(R) DV system of programs. It is based on
 the Gaussian(R) 16 system (copyright 2016, Gaussian, Inc.),
 the Gaussian(R) 09 system (copyright 2009, Gaussian, Inc.),
 the Gaussian(R) 03 system (copyright 2003, Gaussian, Inc.),
 the Gaussian(R) 98 system (copyright 1998, Gaussian, Inc.),
 the Gaussian(R) 94 system (copyright 1995, Gaussian, Inc.),
 the Gaussian 92(TM) system (copyright 1992, Gaussian, Inc.),
 the Gaussian 90(TM) system (copyright 1990, Gaussian, Inc.),
 the Gaussian 88(TM) system (copyright 1988, Gaussian, Inc.),
 the Gaussian 86(TM) system (copyright 1986, Carnegie Mellon
 University), and the Gaussian 82(TM) system (copyright 1983,
 Carnegie Mellon University). Gaussian is a federally registered
 trademark of Gaussian, Inc.
  
 This software contains proprietary and confidential information,
 including trade secrets, belonging to Gaussian, Inc.
  
 This software is provided under written license and may be
 used, copied, transmitted, or stored only in accord with that
 written license.
  
 The following legend is applicable only to US Government
 contracts under FAR:
  
                    RESTRICTED RIGHTS LEGEND
  
 Use, reproduction and disclosure by the US Government is
 subject to restrictions as set forth in subparagraphs (a)
 and (c) of the Commercial Computer Software - Restricted
 Rights clause in FAR 52.227-19.
  
 Gaussian, Inc.
 340 Quinnipiac St., Bldg. 40, Wallingford CT 06492
  
  
 ---------------------------------------------------------------
 Warning -- This program may not be used in any manner that
 competes with the business of Gaussian, Inc. or will provide
 assistance to any competitor of Gaussian, Inc.  The licensee
 of this program is prohibited from giving any competitor of
 Gaussian, Inc. access to this program.  By using this program,
 the user acknowledges that Gaussian, Inc. is engaged in the
 business of creating and licensing software in the field of
 computational chemistry and represents and warrants to the
 licensee that it is not a competitor of Gaussian, Inc. and that
 it will not use this program in any manner prohibited above.
 ---------------------------------------------------------------
  

 Cite this work as:
 Gaussian Development Version, Revision J.30+,
 M. J. Frisch, G. W. Trucks, G. Scalmani, J. R. Cheeseman, X. Li, 
 J. Bloino, B. G. Janesko, A. V. Marenich, J. Zheng, F. Lipparini, 
 A. Jenkins, A. Liu, H. Liu, H. B. Schlegel, G. E. Scuseria, 
 M. A. Robb, V. Barone, G. A. Petersson, H. Nakatsuji, B. Mennucci, 
 C. Adamo, N. Rega, M. Caricato, H. P. Hratchian, J. V. Ortiz, 
 F. Pawlowski, A. F. Izmaylov, H. Hu, C. Liao, J. L. Sonnenberg, 
 D. Williams-Young, F. Ding, R. Gomperts, F. Egidi, J. Goings, 
 B. Peng, A. Petrone, T. Henderson, D. Ranasinghe, V. G. Zakrzewski, 
 J. Gao, G. Zheng, W. Liang, M. Hada, M. Ehara, K. Toyota, R. Fukuda, 
 J. Hasegawa, M. Ishida, T. Nakajima, Y. Honda, O. Kitao, H. Nakai, 
 T. Vreven, K. Throssell, J. A. Montgomery, Jr., J. E. Peralta, 
 F. Ogliaro, M. J. Bearpark, J. J. Heyd, E. N. Brothers, K. N. Kudin, 
 V. N. Staroverov, T. A. Keith, R. Kobayashi, J. Normand, 
 K. Raghavachari, A. P. Rendell, J. C. Burant, S. S. Iyengar, 
 M. Cossi, J. M. Millam, M. Klene, R. Cammi, R. L. Martin, O. Farkas, 
 J. B. Foresman, and D. J. Fox, Gaussian, Inc., Wallingford CT, 2024.
 
 *******************************************
 Gaussian DV:  ES64L-GDVRevJ.30+ 18-Dec-2024
                  2-Aug-2025 
 *******************************************
 %Chk=H2O_CAMB3LYP_genecp.chk
 ----------------------------------------------------------------------
 #P CAM-B3LYP chkbasis Geom=AllCheck Guess=Read Opt Freq SCF=(fermi, no
 varacc) int=superfinegrid
 ----------------------------------------------------------------------
 1/18=20,19=15,26=5,29=7,38=1/1,3;
 2/9=110,12=2/2;
 3/5=7,6=2,11=2,14=-4,25=1,30=1,67=1,71=1,74=-40,75=-7,116=-2/1,2,3;
 4/5=1/1;
 5/5=2,22=13,38=6/2;
 6/7=2,8=2,9=2,10=2,28=1/1;
 7//1,2,3,16;
 1/18=20,19=15,26=5/3(2);
 2/9=110/2;
 99//99;
 2/9=110/2;
 3/5=7,6=1,11=2,14=-2,25=1,30=1,71=1,74=-40,75=-7,82=7,187=7/1,2,3;
 4/5=5,16=3,69=1/1;
 5/5=2,22=13,38=1/2;
 7//1,2,3,16;
 1/18=20,19=15,26=5/3(-5);
 2/9=110/2;
 6/7=2,8=2,9=2,10=2,19=2,28=1/1;
 99/9=1/99;
 Leave Link    1 at Sat Aug  2 15:31:48 2025, MaxMem=           0 cpu:               1.3 elap:               0.1
 (Enter /home/hhratchian/gaussian/gdv-20250101-j30+/gdv/local/l101.exe)
 
  Hrant - IAPOps =                         0
  Hrant - IAPOp1 =                         0
  Hrant - IAPOp2 =                         0
  Hrant - DoAP   =   F
 
 Structure from the checkpoint file:  "H2O_CAMB3LYP_genecp.chk"
 -------------------------------
 Initial Stability Check for H2O
 -------------------------------
 Charge =     0 Multiplicity =     1
 Z-Matrix found in chk file.
 O,0,0.,0.,0.
 H,0,0.758602,0.,0.504284
 H,0,-0.758602,0.,0.504284
 
 Recover connectivity data from disk.
 Initializing the GIC definitions file.
 ITRead=  0  0  0
 MicOpt= -1 -1 -1
 NAtoms=      3 NQM=        3 NQMF=       0 NMMI=      0 NMMIF=      0
                NMic=       0 NMicF=      0.
                    Isotopes and Nuclear Properties:
 (Nuclear quadrupole moments (NQMom) in fm**2, nuclear magnetic moments (NMagM)
  in nuclear magnetons)

  Atom         1           2           3
 IAtWgt=          16           1           1
 AtmWgt=  15.9949146   1.0078250   1.0078250
 NucSpn=           0           1           1
 AtZEff=    5.600000    1.000000    1.000000
 NQMom=    0.0000000   0.0000000   0.0000000
 NMagM=    0.0000000   2.7928460   2.7928460
 AtZNuc=   8.0000000   1.0000000   1.0000000
 Leave Link  101 at Sat Aug  2 15:31:51 2025, MaxMem= 12348030976 cpu:               3.5 elap:               3.4
 (Enter /home/hhratchian/gaussian/gdv-20250101-j30+/gdv/l103.exe)

 GradGradGradGradGradGradGradGradGradGradGradGradGradGradGradGradGradGrad
 Berny optimization.
 Initialization pass.
                           ----------------------------
                           !    Initial Parameters    !
                           ! (Angstroms and Degrees)  !
 --------------------------                            --------------------------
 ! Name  Definition              Value          Derivative Info.                !
 --------------------------------------------------------------------------------
 ! R1    R(1,2)                  0.9109         estimate D2E/DX2                !
 ! R2    R(1,3)                  0.9109         estimate D2E/DX2                !
 ! A1    A(2,1,3)              112.7717         estimate D2E/DX2                !
 --------------------------------------------------------------------------------
 Trust Radius=3.00D-01 FncErr=1.00D-07 GrdErr=1.00D-07 EigMax=2.50D+02 EigMin=1.00D-04
 Number of steps in this run=     20 maximum allowed number of steps=    100.
 GradGradGradGradGradGradGradGradGradGradGradGradGradGradGradGradGradGrad

 Leave Link  103 at Sat Aug  2 15:31:51 2025, MaxMem= 12348030976 cpu:               1.2 elap:               0.0
 (Enter /home/hhratchian/gaussian/gdv-20250101-j30+/gdv/l202.exe)
                          Input orientation:                          
 ---------------------------------------------------------------------
 Center     Atomic      Atomic             Coordinates (Angstroms)
 Number     Number       Type             X           Y           Z
 ---------------------------------------------------------------------
      1          8           0       -0.000000   -0.000000    0.000000
      2          1           0        0.758602    0.000000    0.504284
      3          1           0       -0.758602   -0.000000    0.504284
 ---------------------------------------------------------------------
                    Distance matrix (angstroms):
                    1          2          3
     1  O    0.000000
     2  H    0.910922   0.000000
     3  H    0.910922   1.517204   0.000000
 Stoichiometry    H2O
 Framework group  C2V[C2(O),SGV(H2)]
 Deg. of freedom     2
 Full point group                 C2V     NOp   4
 RotChk:  IX=0 Diff= 6.38D-16
 Largest Abelian subgroup         C2V     NOp   4
 Largest concise Abelian subgroup C2      NOp   2
                         Standard orientation:                         
 ---------------------------------------------------------------------
 Center     Atomic      Atomic             Coordinates (Angstroms)
 Number     Number       Type             X           Y           Z
 ---------------------------------------------------------------------
      1          8           0       -0.000000   -0.000000    0.100857
      2          1           0       -0.000000    0.758602   -0.403427
      3          1           0       -0.000000   -0.758602   -0.403427
 ---------------------------------------------------------------------
 Rotational constants (GHZ):        1110.1894251         435.6864908         312.8935057
 Leave Link  202 at Sat Aug  2 15:31:51 2025, MaxMem= 12348030976 cpu:               1.5 elap:               0.0
 (Enter /home/hhratchian/gaussian/gdv-20250101-j30+/gdv/local/l301.exe)
 Basis read from chk: "H2O_CAMB3LYP_genecp.chk" (5D, 7F)
 Pseudo-potential data read from chk file.
 There are    42 symmetry adapted cartesian basis functions of A1  symmetry.
 There are    12 symmetry adapted cartesian basis functions of A2  symmetry.
 There are    20 symmetry adapted cartesian basis functions of B1  symmetry.
 There are    31 symmetry adapted cartesian basis functions of B2  symmetry.
 There are    35 symmetry adapted basis functions of A1  symmetry.
 There are    12 symmetry adapted basis functions of A2  symmetry.
 There are    18 symmetry adapted basis functions of B1  symmetry.
 There are    27 symmetry adapted basis functions of B2  symmetry.
    92 basis functions,   126 primitive gaussians,   105 cartesian basis functions
     5 alpha electrons        5 beta electrons
       nuclear repulsion energy         9.6435792538 Hartrees.
 IExCor=   2004019 DFT=T Ex+Corr=CAM-B3LYP ScaHFX=  1.000000
 ScaDFX=  1.000000  1.000000  1.000000  0.810000  1.000000  0.000000
 ScaDFX=  0.000000  0.000000  0.000000  0.000000  0.000000  0.000000
 Grid=SuperFine IRanWt=     -1 IRanGd=            0 ICorTp=0 IEDCtl=  2004
 HFx  wShort=  0.000000 wLong=  0.330000 cFull=  0.190000 cShort=  0.000000 cLong=  0.460000
 DFx  wShort=  0.330000 wLong=  0.000000 cFull=  0.350000 cShort=  0.460000 cLong=  0.000000
 NAtoms=    3 NActive=    3 NUniq=    2 SFac= 2.25D+00 NAtFMM=   60 NAOKFM=F Big=F
 Integral buffers will be    131072 words long.
 Raffenetti 2 integral format.
 Two-electron integral symmetry is turned on.
 No density basis found on file 200724.
 Leave Link  301 at Sat Aug  2 15:31:51 2025, MaxMem= 12348030976 cpu:               0.2 elap:               0.0
 (Enter /home/hhratchian/gaussian/gdv-20250101-j30+/gdv/l302.exe)
 NPDir=0 NMtPBC=     1 NCelOv=     1 NCel=       1 NClECP=     1 NCelD=      1
         NCelK=      1 NCelE2=     1 NClLst=     1 CellRange=     0.0.
 One-electron integrals computed using PRISM.
 One-electron integral symmetry used in STVInt
   4 Symmetry operations used in ECPInt.
 ECPInt:  NShTT=     528 NPrTT=    1270 LenC2=     529 LenP2D=    1253.
 LDataN:  DoStor=T MaxTD1= 6 Len=  172
 NBasis=    92 RedAO= T EigKep=  3.31D-04  NBF=    35    12    18    27
 NBsUse=    92 1.00D-06 EigRej= -1.00D+00 NBFU=    35    12    18    27
 Precomputing XC quadrature grid using
 IXCGrd=   9 Grid=SuperFine IRanWt=          -1 IRanGd=           0 AccXCQ= 0.00D+00.
 Generated NRdTot=       0 NPtTot=      198743 NUsed=           0 NTot=          64
 NSgBfM=   105   105   105   105   105 MxSgAt=     3 MxSgA2=     3 SizInc=   0.000
 NMBTot=     1931 MaxBatPerAtom=      131 MaxMicBPerAtom=      656 NBfPt=            16854218.
 Leave Link  302 at Sat Aug  2 15:31:52 2025, MaxMem= 12348030976 cpu:               6.0 elap:               0.2
 (Enter /home/hhratchian/gaussian/gdv-20250101-j30+/gdv/l303.exe)
 DipDrv:  MaxL=1.
 Leave Link  303 at Sat Aug  2 15:31:52 2025, MaxMem= 12348030976 cpu:               1.4 elap:               0.1
 (Enter /home/hhratchian/gaussian/gdv-20250101-j30+/gdv/l401.exe)
 Initial guess from the checkpoint file:  "H2O_CAMB3LYP_genecp.chk"
 B after Tr=    -0.000000    0.000000    0.000000
         Rot=    1.000000    0.000000    0.000000   -0.000000 Ang=   0.00 deg.
 AO Guess basis will be translated and rotated to current coordinates.
 JPrj=2 DoOrth=T DoCkMO=T.
 Initial guess orbital symmetries:
       Occupied  (A1) (A1) (B2) (A1) (B1)
       Virtual   (A1) (B2) (A1) (B1) (A1) (B2) (B2) (A1) (A2) (B1)
                 (A1) (B2) (A1) (B2) (B2) (A1) (A1) (A2) (B1) (A1)
                 (B1) (A1) (B1) (B2) (A2) (B2) (A1) (A1) (B2) (B1)
                 (B2) (A1) (A2) (B2) (A2) (A1) (B1) (A1) (B2) (B2)
                 (A1) (B1) (A1) (A2) (A1) (B1) (B2) (A1) (B2) (B1)
                 (A1) (A2) (B2) (B2) (A1) (B1) (A2) (B2) (A1) (B1)
                 (A2) (A1) (B1) (B2) (A1) (B2) (B2) (A2) (B2) (A1)
                 (B1) (A1) (A1) (B2) (B1) (A1) (B1) (A1) (A2) (B1)
                 (A2) (B2) (A1) (B2) (A1) (B2) (A1)
 The electronic state of the initial guess is 1-A1.
 Leave Link  401 at Sat Aug  2 15:31:52 2025, MaxMem= 12348030976 cpu:               1.8 elap:               0.1
 (Enter /home/hhratchian/gaussian/gdv-20250101-j30+/gdv/local/l502.exe)
 Keep R1 ints in memory in symmetry-blocked form, NReq=71129321.
 FoFCou: FMM=F IPFlag=           0 FMFlag=           0 FMFlg1=           0
         NFxFlg=           0 DoJE=F BraDBF=F KetDBF=F FulRan=T
         wScrn=  0.000000 ICntrl=       600 IOpCl=  0 I1Cent=           0 NGrid=           0
         NMat0=    1 NMatS0=   4278 NMatT0=    0 NMatD0=    1 NMtDS0=    0 NMtDT0=    0
 Petite list used in FoFCou.
 Closed shell SCF:
 Using DIIS extrapolation, IDIIS=    10.
 NGot= 12348030976 LenX= 12345655041 LenY= 12345643575
 Requested convergence on RMS density matrix=1.00D-08 within 128 cycles.
 Requested convergence on MAX density matrix=1.00D-06.
 Requested convergence on             energy=1.00D-06.
 Level shift goal  0.100 maximum shift  0.100.
 No special actions if energy rises.
 Dynamic level shift is on during FON iterations.
 
  Hrant - CycOpn.
 

 Cycle   1  Pass 1  IDiag  1:
 E= -76.4323267038375    
 DIIS: error= 1.04D-08 at cycle   1 NSaved=   1.
 NSaved= 1 IEnMin= 1 EnMin= -76.4323267038375     IErMin= 1 ErrMin= 1.04D-08
 ErrMax= 1.04D-08  0.00D+00 EMaxC= 1.00D+00 BMatC= 4.57D-15 BMatP= 4.57D-15
 Rises=F IDIUse=1 WtCom= 1.00D+00 WtEn= 0.00D+00
 Coeff-Com:  0.100D+01
 Coeff:      0.100D+01
 Gap=     0.400 Goal=     0.100 Shift=    0.000
 RMSDP=1.66D-09 MaxDP=3.45D-08              OVMax= 2.01D-08

 SCF Done:  E(RCAM-B3LYP) =  -76.4323267038     A.U. after    1 cycles
            NFock=  1  Conv=0.17D-08     -V/T= 2.0030
 KE=          76.207266 PE=        -200.040490 EE=          37.757318
 Leave Link  502 at Sat Aug  2 15:31:52 2025, MaxMem= 12348030976 cpu:              14.6 elap:               0.4
 (Enter /home/hhratchian/gaussian/gdv-20250101-j30+/gdv/l601.exe)
 Copying SCF densities to generalized density rwf, IOpCl= 0 IROHF=0.
 
 **********************************************************************
 
               Population analysis using the SCF Density.
 
 **********************************************************************
 
 Orbital symmetries:
       Occupied  (A1) (A1) (B2) (A1) (B1)
       Virtual   (A1) (B2) (A1) (B1) (A1) (B2) (B2) (A1) (A2) (B1)
                 (A1) (B2) (A1) (B2) (B2) (A1) (A1) (A2) (B1) (A1)
                 (B1) (A1) (B1) (B2) (A2) (B2) (A1) (A1) (B2) (B1)
                 (B2) (A1) (A2) (B2) (A2) (A1) (B1) (A1) (B2) (B2)
                 (A1) (B1) (A1) (A2) (A1) (B1) (B2) (A1) (B2) (B1)
                 (A1) (A2) (B2) (B2) (A1) (B1) (A2) (B2) (A1) (B1)
                 (A2) (A1) (B1) (B2) (A1) (B2) (B2) (A2) (B2) (A1)
                 (B1) (A1) (A1) (B2) (B1) (A1) (B1) (A1) (A2) (B1)
                 (A2) (B2) (A1) (B2) (A1) (B2) (A1)
 The electronic state is 1-A1.
 Alpha  occ. eigenvalues --      -19.20077      -1.11712      -0.64402      -0.45820      -0.39601
 Alpha virt. eigenvalues --        0.00402       0.03420       0.10232       0.12026       0.13084
 Alpha virt. eigenvalues --        0.14536       0.18770       0.20139       0.22050       0.26295
 Alpha virt. eigenvalues --        0.26680       0.33253       0.37751       0.40042       0.51941
 Alpha virt. eigenvalues --        0.56242       0.62201       0.63177       0.63379       0.74560
 Alpha virt. eigenvalues --        0.76085       0.77279       0.81915       0.82606       0.83638
 Alpha virt. eigenvalues --        0.84793       0.89184       0.94147       0.94971       0.97840
 Alpha virt. eigenvalues --        1.04488       1.09337       1.09537       1.14185       1.40173
 Alpha virt. eigenvalues --        1.43979       1.49318       1.60826       1.64531       1.89216
 Alpha virt. eigenvalues --        1.96251       2.05696       2.11520       2.13786       2.20357
 Alpha virt. eigenvalues --        2.22307       2.22595       2.27022       2.48013       2.49091
 Alpha virt. eigenvalues --        2.60643       2.69800       2.72098       3.45123       3.58514
 Alpha virt. eigenvalues --        3.79993       3.80873       4.03813       4.05954       4.13230
 Alpha virt. eigenvalues --        4.17115       4.20836       4.22760       4.23153       4.39800
 Alpha virt. eigenvalues --        4.55375       4.95969       5.03042       5.16925       5.17564
 Alpha virt. eigenvalues --        5.29926       5.49144       5.85308       6.14522       6.33069
 Alpha virt. eigenvalues --        6.50622       6.70174       6.80803       6.88128       6.96976
 Alpha virt. eigenvalues --        7.05032       7.19162       7.30738       7.62519       7.71935
 Alpha virt. eigenvalues --        8.51637      16.72046
          Condensed to atoms (all electrons):
               1          2          3
     1  O    7.653298   0.292803   0.292803
     2  H    0.292803   0.623134  -0.035389
     3  H    0.292803  -0.035389   0.623134
 Mulliken charges:
               1
     1  O   -0.238904
     2  H    0.119452
     3  H    0.119452
 Sum of Mulliken charges=   0.00000
 Mulliken charges with hydrogens summed into heavy atoms:
               1
     1  O    0.000000
 Electronic spatial extent (au):  <R**2>=             19.4422
 Charge=              0.0000 electrons
 Dipole moment (field-independent basis, Debye):
    X=             -0.0000    Y=              0.0000    Z=             -1.7331  Tot=              1.7331
 Quadrupole moment (field-independent basis, Debye-Ang):
   XX=             -7.7104   YY=             -4.2738   ZZ=             -6.6837
   XY=              0.0000   XZ=              0.0000   YZ=              0.0000
 Traceless Quadrupole moment (field-independent basis, Debye-Ang):
   XX=             -1.4877   YY=              1.9488   ZZ=             -0.4611
   XY=              0.0000   XZ=              0.0000   YZ=              0.0000
 Octapole moment (field-independent basis, Debye-Ang**2):
  XXX=              0.0000  YYY=              0.0000  ZZZ=             -0.9389  XYY=             -0.0000
  XXY=             -0.0000  XXZ=             -0.2316  XZZ=              0.0000  YZZ=              0.0000
  YYZ=             -1.2036  XYZ=             -0.0000
 Hexadecapole moment (field-independent basis, Debye-Ang**3):
 XXXX=             -7.6504 YYYY=             -6.1807 ZZZZ=             -7.7657 XXXY=             -0.0000
 XXXZ=             -0.0000 YYYX=             -0.0000 YYYZ=             -0.0000 ZZZX=             -0.0000
 ZZZY=             -0.0000 XXYY=             -2.6529 XXZZ=             -2.5956 YYZZ=             -2.1801
 XXYZ=              0.0000 YYXZ=              0.0000 ZZXY=             -0.0000
 N-N=           9.643579 E-N=        -200.040490  KE=          76.207266
 Symmetry A1   KE=          67.905377
 Symmetry A2   KE=           0.000000
 Symmetry B1   KE=           4.510553
 Symmetry B2   KE=           3.791336
 No NMR shielding tensors so no spin-rotation constants.
 Leave Link  601 at Sat Aug  2 15:31:52 2025, MaxMem= 12348030976 cpu:               9.7 elap:               0.2
 (Enter /home/hhratchian/gaussian/gdv-20250101-j30+/gdv/l701.exe)
 ... and contract with generalized density number  0.
 Compute integral first derivatives.
   4 Symmetry operations used in ECPInt.
 ECPInt:  NShTT=     528 NPrTT=    1270 LenC2=     529 LenP2D=    1253.
 LDataN:  DoStor=T MaxTD1= 7 Len=  274
 Leave Link  701 at Sat Aug  2 15:31:53 2025, MaxMem= 12348030976 cpu:               6.4 elap:               0.2
 (Enter /home/hhratchian/gaussian/gdv-20250101-j30+/gdv/l702.exe)
 L702 exits ... SP integral derivatives will be done elsewhere.
 Leave Link  702 at Sat Aug  2 15:31:53 2025, MaxMem= 12348030976 cpu:               1.3 elap:               0.1
 (Enter /home/hhratchian/gaussian/gdv-20250101-j30+/gdv/l703.exe)
 Integral derivatives from FoFJK, PRISM(SPDF).
 Compute integral first derivatives, UseDBF=F ICtDFT=           0.
 Calling FoFJK, ICntrl=      2127 FMM=F ISym2X=1 I1Cent= 0 IOpClX= 0 NMat=1 NMatS=1 NMatT=0.
 FoFJK:  IHMeth= 1 ICntrl=    2127 DoSepK=T KAlg= 0 I1Cent=           0 FoldK=F
 IRaf=         1 NMat=       1 IRICut=       1 DoRegI=T DoRafI=F ISym2E= 1 IDoP0=0 IntGTp=1.
 FoFCou: FMM=F IPFlag=           0 FMFlag=      100000 FMFlg1=         800
         NFxFlg=           0 DoJE=F BraDBF=F KetDBF=F FulRan=T
         wScrn=  0.000000 ICntrl=      2527 IOpCl=  0 I1Cent=           0 NGrid=           0
         NMat0=    1 NMatS0=      1 NMatT0=    0 NMatD0=    1 NMtDS0=    0 NMtDT0=    0
 Petite list used in FoFCou.
 Leave Link  703 at Sat Aug  2 15:31:53 2025, MaxMem= 12348030976 cpu:              26.4 elap:               0.6
 (Enter /home/hhratchian/gaussian/gdv-20250101-j30+/gdv/l716.exe)
 Dipole        =-3.20006018D-17 2.22044605D-16-6.81845483D-01
 ***** Axes restored to original set *****
 -------------------------------------------------------------------
 Center     Atomic                   Forces (Hartrees/Bohr)
 Number     Number              X              Y              Z
 -------------------------------------------------------------------
      1        8          -0.000000000   -0.000000000   -0.074384891
      2        1           0.042076391    0.000000000    0.037192445
      3        1          -0.042076391    0.000000000    0.037192445
 -------------------------------------------------------------------
 Cartesian Forces:  Max     0.074384891 RMS     0.036271374
 Leave Link  716 at Sat Aug  2 15:31:53 2025, MaxMem= 12348030976 cpu:               0.1 elap:               0.0
 (Enter /home/hhratchian/gaussian/gdv-20250101-j30+/gdv/l103.exe)

 GradGradGradGradGradGradGradGradGradGradGradGradGradGradGradGradGradGrad
 Berny optimization.
 FormGI is forming the generalized inverse of G from B-inverse, IUseBI=4.
 NTrRot=    -1 NTRed=     3 NAtoms=     3 NSkip=     0 NRank=     3 IsLin=F EigSml=8.5452D-01
 Internal  Forces:  Max     0.055630203 RMS     0.046058701
 Search for a local minimum.
 Step number   1 out of a maximum of   20
 All quantities printed in internal units (Hartrees-Bohrs-Radians)
 RMS Force = .46059D-01 SwitMx=.10000D-02 MixMth= 1
 Mixed Optimization -- RFO/linear search
 Second derivative matrix not updated -- first step.
 The second derivative matrix:
                          R1        R2        A1
           R1           0.67525
           R2           0.00000   0.67525
           A1           0.00000   0.00000   0.16000
 ITU=  0
     Eigenvalues ---    0.16000   0.67525   0.67525
 RFO step:  Lambda=-1.00593221D-02 EMin= 1.60000000D-01
 Linear search not attempted -- first point.
 GrdOpt: GIC=T ITstSp=  0 NP=   1 DidLin=F DidDIS=F IDoGRo=0 IDoRot=0
         ISwap=1 XLin= 0.000 DXMaxT= 0.300
 Iteration  1 RMS(Cart)=  0.03095304 RMS(Int)=  0.00227870
 Iteration  2 RMS(Cart)=  0.00144455 RMS(Int)=  0.00000269
 Iteration  3 RMS(Cart)=  0.00000107 RMS(Int)=  0.00000000
 Iteration  4 RMS(Cart)=  0.00000000 RMS(Int)=  0.00000000
 ClnCor:  largest displacement from symmetrization is 5.66D-16 for atom     1.
 Variable       Old X    -DE/DX   Delta X   Delta X   Delta X     New X
                                 (Linear)    (Quad)   (Total)
    R1        1.72139   0.05563   0.00000   0.08118   0.08118   1.80257
    R2        1.72139   0.05563   0.00000   0.08118   0.08118   1.80257
    A1        1.96824  -0.01322   0.00000  -0.07774  -0.07774   1.89050
         Item               Value     Threshold  Converged?
 Maximum Force            0.055630     0.000450     NO 
 RMS     Force            0.046059     0.000300     NO 
 Maximum Displacement     0.068346     0.001800     NO 
 RMS     Displacement     0.053355     0.001200     NO 
 Predicted change in Energy=-5.126343D-03
 Lowest energy point so far.  Saving SCF results.
 GradGradGradGradGradGradGradGradGradGradGradGradGradGradGradGradGradGrad

 Leave Link  103 at Sat Aug  2 15:31:53 2025, MaxMem= 12348030976 cpu:               1.4 elap:               0.1
 (Enter /home/hhratchian/gaussian/gdv-20250101-j30+/gdv/l202.exe)
                          Input orientation:                          
 ---------------------------------------------------------------------
 Center     Atomic      Atomic             Coordinates (Angstroms)
 Number     Number       Type             X           Y           Z
 ---------------------------------------------------------------------
      1          8           0       -0.000000    0.000000   -0.036167
      2          1           0        0.773255    0.000000    0.522368
      3          1           0       -0.773255   -0.000000    0.522368
 ---------------------------------------------------------------------
                    Distance matrix (angstroms):
                    1          2          3
     1  O    0.000000
     2  H    0.953878   0.000000
     3  H    0.953878   1.546510   0.000000
 Stoichiometry    H2O
 Framework group  C2V[C2(O),SGV(H2)]
 Deg. of freedom     2
 Full point group                 C2V     NOp   4
 RotChk:  IX=0 Diff= 4.24D-16
 Largest Abelian subgroup         C2V     NOp   4
 Largest concise Abelian subgroup C2      NOp   2
                         Standard orientation:                         
 ---------------------------------------------------------------------
 Center     Atomic      Atomic             Coordinates (Angstroms)
 Number     Number       Type             X           Y           Z
 ---------------------------------------------------------------------
      1          8           0        0.000000    0.000000    0.111707
      2          1           0       -0.000000    0.773255   -0.446828
      3          1           0       -0.000000   -0.773255   -0.446828
 ---------------------------------------------------------------------
 Rotational constants (GHZ):         904.9973922         419.3307320         286.5552819
[...]
 Requested convergence on             energy=1.00D-06.
 Level shift goal  0.100 maximum shift  0.100.
 No special actions if energy rises.
 Dynamic level shift is on during FON iterations.
 
  Hrant - CycOpn.
 

 Cycle   1  Pass 1  IDiag  1:
 E= -76.4380679360291    
 DIIS: error= 2.09D-08 at cycle   1 NSaved=   1.
 NSaved= 1 IEnMin= 1 EnMin= -76.4380679360291     IErMin= 1 ErrMin= 2.09D-08
 ErrMax= 2.09D-08  0.00D+00 EMaxC= 1.00D+00 BMatC= 6.45D-15 BMatP= 6.45D-15
 Rises=F IDIUse=1 WtCom= 1.00D+00 WtEn= 0.00D+00
 Coeff-Com:  0.100D+01
 Coeff:      0.100D+01
 Gap=     0.394 Goal=     0.100 Shift=    0.000
 RMSDP=5.24D-09 MaxDP=1.10D-07              OVMax= 2.14D-08

 SCF Done:  E(RCAM-B3LYP) =  -76.4380679360     A.U. after    1 cycles
            NFock=  1  Conv=0.52D-08     -V/T= 2.0056
 KE=          76.013538 PE=        -198.998599 EE=          37.382616
 Leave Link  502 at Sat Aug  2 15:32:08 2025, MaxMem= 12348030976 cpu:              21.1 elap:               0.6
 (Enter /home/hhratchian/gaussian/gdv-20250101-j30+/gdv/l601.exe)
 Copying SCF densities to generalized density rwf, IOpCl= 0 IROHF=0.
 
 **********************************************************************
 
               Population analysis using the SCF Density.
 
 **********************************************************************
 
 Orbital symmetries:
       Occupied  (A1) (A1) (B2) (A1) (B1)
       Virtual   (A1) (B2) (A1) (B1) (A1) (B2) (B2) (A1) (A2) (B1)
                 (A1) (B2) (A1) (B2) (B2) (A1) (A1) (A2) (B1) (A1)
                 (B1) (A1) (B1) (B2) (A2) (B2) (A1) (A1) (B2) (B1)
                 (B2) (A1) (A2) (B2) (A2) (A1) (B1) (A1) (B2) (B2)
                 (A1) (B1) (A2) (A1) (A1) (B1) (B2) (A1) (B2) (B1)
                 (A1) (B2) (A2) (B2) (A1) (B1) (A2) (A1) (B2) (B1)
                 (A2) (B1) (A1) (B2) (A1) (B2) (B2) (A2) (B2) (A1)
                 (B1) (A1) (A1) (B2) (B1) (A1) (B1) (B1) (A1) (A2)
                 (A2) (B2) (A1) (A1) (B2) (B2) (A1)
 The electronic state is 1-A1.
 Alpha  occ. eigenvalues --      -19.21104      -1.09972      -0.60976      -0.46613      -0.39279
 Alpha virt. eigenvalues --        0.00119       0.03383       0.09945       0.12299       0.13049
 Alpha virt. eigenvalues --        0.14387       0.17995       0.20041       0.22148       0.25251
 Alpha virt. eigenvalues --        0.25820       0.33168       0.36555       0.38705       0.51357
 Alpha virt. eigenvalues --        0.56606       0.61749       0.63600       0.63932       0.73099
 Alpha virt. eigenvalues --        0.75641       0.77897       0.81360       0.81483       0.83439
 Alpha virt. eigenvalues --        0.84876       0.86767       0.92380       0.93273       0.96590
 Alpha virt. eigenvalues --        1.02876       1.08463       1.09103       1.15308       1.38242
 Alpha virt. eigenvalues --        1.41608       1.44747       1.63145       1.66796       1.80582
 Alpha virt. eigenvalues --        1.92536       2.05916       2.11621       2.12722       2.19456
 Alpha virt. eigenvalues --        2.23030       2.23962       2.27798       2.48332       2.49870
 Alpha virt. eigenvalues --        2.55019       2.64026       2.68002       3.39091       3.49173
 Alpha virt. eigenvalues --        3.72358       3.78480       3.95333       4.01361       4.07210
 Alpha virt. eigenvalues --        4.14161       4.15483       4.15823       4.22585       4.37341
 Alpha virt. eigenvalues --        4.51775       4.87920       4.88112       4.97581       5.00158
 Alpha virt. eigenvalues --        5.18881       5.36202       5.79155       6.13296       6.32128
 Alpha virt. eigenvalues --        6.49557       6.72744       6.81439       6.86477       6.90147
 Alpha virt. eigenvalues --        6.92162       6.92542       7.11251       7.48167       7.48987
 Alpha virt. eigenvalues --        8.34206      15.02828
          Condensed to atoms (all electrons):
               1          2          3
     1  O    7.824918   0.260182   0.260182
     2  H    0.260182   0.565794   0.001384
     3  H    0.260182   0.001384   0.565794
 Mulliken charges:
               1
     1  O   -0.345281
     2  H    0.172640
     3  H    0.172640
 Sum of Mulliken charges=  -0.00000
 Mulliken charges with hydrogens summed into heavy atoms:
               1
     1  O   -0.000000
 Electronic spatial extent (au):  <R**2>=             20.0715
 Charge=              0.0000 electrons
 Dipole moment (field-independent basis, Debye):
    X=             -0.0000    Y=             -0.0000    Z=             -1.8785  Tot=              1.8785
 Quadrupole moment (field-independent basis, Debye-Ang):
   XX=             -7.8192   YY=             -4.4463   ZZ=             -6.5241
   XY=              0.0000   XZ=              0.0000   YZ=             -0.0000
 Traceless Quadrupole moment (field-independent basis, Debye-Ang):
   XX=             -1.5560   YY=              1.8169   ZZ=             -0.2609
   XY=              0.0000   XZ=              0.0000   YZ=             -0.0000
 Octapole moment (field-independent basis, Debye-Ang**2):
  XXX=              0.0000  YYY=             -0.0000  ZZZ=             -0.9884  XYY=             -0.0000
  XXY=              0.0000  XXZ=             -0.2097  XZZ=              0.0000  YZZ=              0.0000
  YYZ=             -1.3261  XYZ=             -0.0000
 Hexadecapole moment (field-independent basis, Debye-Ang**3):
 XXXX=             -7.8178 YYYY=             -6.7353 ZZZZ=             -8.1628 XXXY=             -0.0000
 XXXZ=             -0.0000 YYYX=             -0.0000 YYYZ=             -0.0000 ZZZX=             -0.0000
 ZZZY=              0.0000 XXYY=             -2.7669 XXZZ=             -2.7094 YYZZ=             -2.1861
 XXYZ=             -0.0000 YYXZ=              0.0000 ZZXY=             -0.0000
 N-N=           9.164377 E-N=        -198.998599  KE=          76.013538
 Symmetry A1   KE=          67.808875
 Symmetry A2   KE=           0.000000
 Symmetry B1   KE=           4.515333
 Symmetry B2   KE=           3.689331
 No NMR shielding tensors so no spin-rotation constants.
 Leave Link  601 at Sat Aug  2 15:32:08 2025, MaxMem= 12348030976 cpu:               5.3 elap:               0.1
 (Enter /home/hhratchian/gaussian/gdv-20250101-j30+/gdv/l801.exe)
 DoSCS=F DFT=T ScalE2(SS,OS)=  1.000000  1.000000
 Range of M.O.s used for correlation:     1    92
 NBasis=    92 NAE=     5 NBE=     5 NFC=     0 NFV=     0
 NROrb=     92 NOA=     5 NOB=     5 NVA=    87 NVB=    87

 **** Warning!!: The largest alpha MO coefficient is  0.15863251D+02

 Leave Link  801 at Sat Aug  2 15:32:09 2025, MaxMem= 12348030976 cpu:               0.2 elap:               0.0
 (Enter /home/hhratchian/gaussian/gdv-20250101-j30+/gdv/l914.exe)
 RHF ground state
 Doing stability rather than CIS.
 DoSCS=F DFT=T ScalE2(SS,OS)=  1.000000  1.000000
   ScalD2(USS,UOS,TSS,TOS,w)=  1.000000  1.000000  1.000000  1.000000  1.000000
 Keep R1 and R2 ints in memory in symmetry-blocked form, NReq=133689116.
 FoFCou: FMM=F IPFlag=           0 FMFlag=           0 FMFlg1=           0
         NFxFlg=           0 DoJE=F BraDBF=F KetDBF=F FulRan=T
         wScrn=  0.000000 ICntrl=       600 IOpCl=  0 I1Cent=           0 NGrid=           0
         NMat0=    1 NMatS0=   4278 NMatT0=    0 NMatD0=    1 NMtDS0=    0 NMtDT0=    0
 Petite list used in FoFCou.
 MDV= 12348030976 DFT=T IDoStb=1 Mixed=T DoRPA=F DoScal=F NonHer=F
 Making orbital integer symmetry assigments:
 Orbital symmetries:
       Occupied  (A1) (A1) (B2) (A1) (B1)
       Virtual   (A1) (B2) (A1) (B1) (A1) (B2) (B2) (A1) (A2) (B1)
                 (A1) (B2) (A1) (B2) (B2) (A1) (A1) (A2) (B1) (A1)
                 (B1) (A1) (B1) (B2) (A2) (B2) (A1) (A1) (B2) (B1)
                 (B2) (A1) (A2) (B2) (A2) (A1) (B1) (A1) (B2) (B2)
                 (A1) (B1) (A2) (A1) (A1) (B1) (B2) (A1) (B2) (B1)
                 (A1) (B2) (A2) (B2) (A1) (B1) (A2) (A1) (B2) (B1)
                 (A2) (B1) (A1) (B2) (A1) (B2) (B2) (A2) (B2) (A1)
                 (B1) (A1) (A1) (B2) (B1) (A1) (B1) (B1) (A1) (A2)
                 (A2) (B2) (A1) (A1) (B2) (B2) (A1)
 The electronic state is 1-A1.
    24 initial guesses have been made.
 Convergence on wavefunction:    0.001000000000000
 Davidson Disk Diagonalization:  ConvIn= 1.00D-03 SkipCon=T Conv= 1.00D-03.
 Max sub-space:  1740 initial roots:    24 roots to seek:     1 dimension of matrix:          870
 Iteration     1 Dimension    24 NMult     0 NNew     24
 CISAX will form    24 AO SS matrices at one time.
 NMat=    24 NSing=    12 JSym2X=-1.
 New state      1 was old state      2
 Excitation Energies [eV] at current iteration:
 Root      1 :     6.768734781289400
 Root      2 :     7.357902144415823
 Root      3 :     8.619458671787934
 Root      4 :     8.757585580975165
 Root      5 :     8.907565711639725
 Root      6 :     9.555219573875272
 Root      7 :    10.031393690229610
 Root      8 :    10.131911518257905
 Root      9 :    10.221002958359515
 Root     10 :    10.669504406682414
 Root     11 :    11.009908925117454
 Root     12 :    11.045425408032825
 Root     13 :    11.047302298220163
 Root     14 :    11.100620743208847
 Root     15 :    11.270179220101058
 Root     16 :    11.463824100970728
 Root     17 :    11.997370920852743
 Root     18 :    12.034604265427323
 Root     19 :    12.083437107333253
 Root     20 :    12.271281047449563
 Root     21 :    12.362566442640894
 Root     22 :    12.365783463215303
 Root     23 :    12.489924679942186
 Root     24 :    14.671967226041946
 Iteration     2 Dimension    48 NMult    24 NNew     24
 CISAX will form    24 AO SS matrices at one time.
 NMat=    24 NSing=    12 JSym2X=-1.
 Root      1 not converged, maximum delta is    0.105444674742973
 Excitation Energies [eV] at current iteration:
 Root      1 :     6.474281287946981   Change is   -0.294453493342418
 Root      2 :     7.302909357105708   Change is   -0.054992787310115
 Root      3 :     8.350654759625801   Change is   -0.556910952013923
 Root      4 :     8.377379222575749   Change is   -0.242079449212185
 Root      5 :     8.712509962053371   Change is   -0.045075618921795
 Root      6 :     9.390411240604958   Change is   -0.164808333270314
 Root      7 :     9.526437057729474   Change is   -0.504956632500136
 Root      8 :     9.827729662004216   Change is   -0.304181856253689
 Root      9 :    10.089257139893355   Change is   -0.131745818466159
 Root     10 :    10.325436793141208   Change is   -0.719988614891618
 Root     11 :    10.452291071687192   Change is   -0.217213334995222
 Root     12 :    10.646706270739205   Change is   -0.400596027480960
 Root     13 :    10.857777724959218   Change is   -0.242843018249629
 Root     14 :    10.893106535695992   Change is   -0.570717565274735
 Root     15 :    10.908081376018862   Change is   -0.101827549098591
 Root     16 :    11.100110686560846   Change is   -0.170068533540211
 Root     17 :    11.440256659981008   Change is   -0.643180447352245
 Root     18 :    11.910490836396971   Change is   -0.124113429030353
 Root     19 :    11.913319856552118   Change is   -0.084051064300626
 Root     20 :    12.055493667843859   Change is   -0.215787379605705
 Root     21 :    12.239415045498765   Change is   -0.126368417716539
 Root     22 :    12.295650286145683   Change is   -0.066916156495212
 Root     23 :    12.408016931817757   Change is   -0.081907748124429
 Root     24 :    12.616809080034304   Change is   -2.055158146007642
 Iteration     3 Dimension    54 NMult    48 NNew      6
 CISAX will form     6 AO SS matrices at one time.
 NMat=     6 NSing=     3 JSym2X=-1.
 Root      1 not converged, maximum delta is    0.002953826301342
 Excitation Energies [eV] at current iteration:
 Root      1 :     6.472750156717145   Change is   -0.001531131229836
 Root      2 :     7.301800868100382   Change is   -0.001108489005326
 Root      3 :     8.314071410964580   Change is   -0.036583348661221
 Root      4 :     8.375080279344926   Change is   -0.002298943230822
 Root      5 :     8.712006524621774   Change is   -0.000503437431596
 Root      6 :     9.360780614532555   Change is   -0.029630626072404
 Iteration     4 Dimension    60 NMult    54 NNew      6
 CISAX will form     6 AO SS matrices at one time.
 NMat=     6 NSing=     3 JSym2X=-1.
 Root      1 has converged.
 Excitation Energies [eV] at current iteration:
 Root      1 :     6.472735299546258   Change is   -0.000014857170887
 Root      2 :     7.301790385819899   Change is   -0.000010482280483
 Root      3 :     8.310196971761025   Change is   -0.003874439203556
 Root      4 :     8.375050909651948   Change is   -0.000029369692979
 Root      5 :     8.712001473042070   Change is   -0.000005051579703
 Root      6 :     9.357945069687634   Change is   -0.002835544844921
 Convergence achieved on expansion vectors.
 1PDM for each excited state written to RWF  633
 Ground to excited state transition densities written to RWF  633

 ***********************************************************************
 Stability analysis using <AA,BB:AA,BB> singles matrix:
 ***********************************************************************

 Eigenvectors of the stability matrix:
 
 Eigenvector   1:      Triplet-B1   Eigenvalue= 0.2378686  <S**2>=2.000
       5 ->  6         0.63113
       5 ->  8        -0.24572
       5 -> 10        -0.16429
       5 -> 18         0.10445
 The wavefunction is stable under the perturbations considered.
 Leave Link  914 at Sat Aug  2 15:32:10 2025, MaxMem= 12348030976 cpu:              96.5 elap:               1.9
 (Enter /home/hhratchian/gaussian/gdv-20250101-j30+/gdv/l508.exe)
 The wavefunction is already stable.
 Leave Link  508 at Sat Aug  2 15:32:11 2025, MaxMem= 12348030976 cpu:               0.1 elap:               0.0
 (Enter /home/hhratchian/gaussian/gdv-20250101-j30+/gdv/l601.exe)
 Copying SCF densities to generalized density rwf, IOpCl= 0 IROHF=0.
 
 **********************************************************************
 
               Population analysis using the SCF Density.
 
 **********************************************************************
 
 Orbital symmetries:
       Occupied  (A1) (A1) (B2) (A1) (B1)
       Virtual   (A1) (B2) (A1) (B1) (A1) (B2) (B2) (A1) (A2) (B1)
                 (A1) (B2) (A1) (B2) (B2) (A1) (A1) (A2) (B1) (A1)
                 (B1) (A1) (B1) (B2) (A2) (B2) (A1) (A1) (B2) (B1)
                 (B2) (A1) (A2) (B2) (A2) (A1) (B1) (A1) (B2) (B2)
                 (A1) (B1) (A2) (A1) (A1) (B1) (B2) (A1) (B2) (B1)
                 (A1) (B2) (A2) (B2) (A1) (B1) (A2) (A1) (B2) (B1)
                 (A2) (B1) (A1) (B2) (A1) (B2) (B2) (A2) (B2) (A1)
                 (B1) (A1) (A1) (B2) (B1) (A1) (B1) (B1) (A1) (A2)
                 (A2) (B2) (A1) (A1) (B2) (B2) (A1)
 The electronic state is 1-A1.
 Alpha  occ. eigenvalues --      -19.21104      -1.09972      -0.60976      -0.46613      -0.39279
 Alpha virt. eigenvalues --        0.00119       0.03383       0.09945       0.12299       0.13049
 Alpha virt. eigenvalues --        0.14387       0.17995       0.20041       0.22148       0.25251
 Alpha virt. eigenvalues --        0.25820       0.33168       0.36555       0.38705       0.51357
 Alpha virt. eigenvalues --        0.56606       0.61749       0.63600       0.63932       0.73099
 Alpha virt. eigenvalues --        0.75641       0.77897       0.81360       0.81483       0.83439
 Alpha virt. eigenvalues --        0.84876       0.86767       0.92380       0.93273       0.96590
 Alpha virt. eigenvalues --        1.02876       1.08463       1.09103       1.15308       1.38242
 Alpha virt. eigenvalues --        1.41608       1.44747       1.63145       1.66796       1.80582
 Alpha virt. eigenvalues --        1.92536       2.05916       2.11621       2.12722       2.19456
 Alpha virt. eigenvalues --        2.23030       2.23962       2.27798       2.48332       2.49870
 Alpha virt. eigenvalues --        2.55019       2.64026       2.68002       3.39091       3.49173
 Alpha virt. eigenvalues --        3.72358       3.78480       3.95333       4.01361       4.07210
 Alpha virt. eigenvalues --        4.14161       4.15483       4.15823       4.22585       4.37341
 Alpha virt. eigenvalues --        4.51775       4.87920       4.88112       4.97581       5.00158
 Alpha virt. eigenvalues --        5.18881       5.36202       5.79155       6.13296       6.32128
 Alpha virt. eigenvalues --        6.49557       6.72744       6.81439       6.86477       6.90147
 Alpha virt. eigenvalues --        6.92162       6.92542       7.11251       7.48167       7.48987
 Alpha virt. eigenvalues --        8.34206      15.02828
          Condensed to atoms (all electrons):
               1          2          3
     1  O    7.824918   0.260182   0.260182
     2  H    0.260182   0.565794   0.001384
     3  H    0.260182   0.001384   0.565794
 Mulliken charges:
               1
     1  O   -0.345281
     2  H    0.172640
     3  H    0.172640
 Sum of Mulliken charges=  -0.00000
 Mulliken charges with hydrogens summed into heavy atoms:
               1
     1  O   -0.000000
 Electronic spatial extent (au):  <R**2>=             20.0715
 Charge=              0.0000 electrons
 Dipole moment (field-independent basis, Debye):
    X=             -0.0000    Y=             -0.0000    Z=             -1.8785  Tot=              1.8785
 Quadrupole moment (field-independent basis, Debye-Ang):
   XX=             -7.8192   YY=             -4.4463   ZZ=             -6.5241
   XY=              0.0000   XZ=              0.0000   YZ=             -0.0000
 Traceless Quadrupole moment (field-independent basis, Debye-Ang):
   XX=             -1.5560   YY=              1.8169   ZZ=             -0.2609
   XY=              0.0000   XZ=              0.0000   YZ=             -0.0000
 Octapole moment (field-independent basis, Debye-Ang**2):
  XXX=              0.0000  YYY=             -0.0000  ZZZ=             -0.9884  XYY=             -0.0000
  XXY=              0.0000  XXZ=             -0.2097  XZZ=              0.0000  YZZ=              0.0000
  YYZ=             -1.3261  XYZ=             -0.0000
 Hexadecapole moment (field-independent basis, Debye-Ang**3):
 XXXX=             -7.8178 YYYY=             -6.7353 ZZZZ=             -8.1628 XXXY=             -0.0000
 XXXZ=             -0.0000 YYYX=             -0.0000 YYYZ=             -0.0000 ZZZX=             -0.0000
 ZZZY=              0.0000 XXYY=             -2.7669 XXZZ=             -2.7094 YYZZ=             -2.1861
 XXYZ=             -0.0000 YYXZ=              0.0000 ZZXY=             -0.0000
 N-N=           9.164377 E-N=        -198.998599  KE=          76.013538
 Symmetry A1   KE=          67.808875
 Symmetry A2   KE=           0.000000
 Symmetry B1   KE=           4.515333
 Symmetry B2   KE=           3.689331
 No NMR shielding tensors so no spin-rotation constants.
 Leave Link  601 at Sat Aug  2 15:32:11 2025, MaxMem= 12348030976 cpu:               4.5 elap:               0.1
 (Enter /home/hhratchian/gaussian/gdv-20250101-j30+/gdv/local/l9999.exe)
 Unable to Open any file for archive entry.
 1\1\GINC-HMNODE006\Stability\RCAM-B3LYP\Gen\H2O1\AABOUTAKA\02-Aug-2025
 \0\\#P CAM-B3LYP chkbasis Geom=AllCheck Guess=Read Stable=Opt SCF=(fer
 mi,novaracc)\\Initial Stability Check for H2O\\0,1\O,0,0.,0.,-0.051264
 1208\H,0,0.7642837085,0.,0.5299160604\H,0,-0.7642837085,0.,0.529916060
 4\\Version=ES64L-GDVRevJ.30+\State=1-A1\HF=-76.4380679\RMSD=5.237e-09\
 Dipole=0.,0.,0.7390562\Quadrupole=1.3508121,-1.1568438,-0.1939683,0.,0
 .,0.\PG=C02V [C2(O1),SGV(H2)]\\@
 The archive entry for this job was punched.


 WE STILL HAVE JUDGEMENT HERE,
 THAT WE TEACH BUT BLOODY INSTRUCTIONS,
 WHICH, BEING TAUGHT,
 RETURN TO PLAGUE THE INVENTOR.
           MACBETH ACT I, SCENE VII
 Job cpu time:       0 days  0 hours  2 minutes 20.4 seconds.
 Elapsed time:       0 days  0 hours  0 minutes  3.6 seconds.
 File lengths (MBytes):  RWF=    100 Int=      0 D2E=      0 Chk=     67 Scr=      2
 Normal termination of Gaussian DV at Sat Aug  2 15:32:11 2025.
