 Set GAUSS_MDEF to "92GB".
 Set GAUSS_PDEF to "56".
 Entering Gaussian System, Link 0=gdv
 Initial command:
 /home/hhratchian/gaussian/gdv-20250101-j30+/gdv/local/l1.exe "/scratch/aaboutaka/1561493/Gau-394237.inp" -scrdir="/scratch/aaboutaka/1561493/"
 Default is to use a total of  56 processors:
                               56 via shared-memory
                                1 via Linda
 Entering Link 1 = /home/hhratchian/gaussian/gdv-20250101-j30+/gdv/local/l1.exe PID=    394238.
  
 Copyright (c) 1988-2024, Gaussian, Inc.  All Rights Reserved.
  
 This is the private, development version of
 the Gaussian(R) DV system of programs. It is based on
 the Gaussian(R) 16 system (copyright 2016, Gaussian, Inc.),
 the Gaussian(R) 09 system (copyright 2009, Gaussian, Inc.),
 the Gaussian(R) 03 system (copyright 2003, Gaussian, Inc.),
 the Gaussian(R) 98 system (copyright 1998, Gaussian, Inc.),
 the Gaussian(R) 94 system (copyright 1995, Gaussian, Inc.),
 the Gaussian 92(TM) system (copyright 1992, Gaussian, Inc.),
 the Gaussian 90(TM) system (copyright 1990, Gaussian, Inc.),
 the Gaussian 88(TM) system (copyright 1988, Gaussian, Inc.),
 the Gaussian 86(TM) system (copyright 1986, Carnegie Mellon
 University), and the Gaussian 82(TM) system (copyright 1983,
 Carnegie Mellon University). Gaussian is a federally registered
 trademark of Gaussian, Inc.
  
 This software contains proprietary and confidential information,
 including trade secrets, belonging to Gaussian, Inc.
  
 This software is provided under written license and may be
 used, copied, transmitted, or stored only in accord with that
 written license.
  
 The following legend is applicable only to US Government
 contracts under FAR:
  
                    RESTRICTED RIGHTS LEGEND
  
 Use, reproduction and disclosure by the US Government is
 subject to restrictions as set forth in subparagraphs (a)
 and (c) of the Commercial Computer Software - Restricted
 Rights clause in FAR 52.227-19.
  
 Gaussian, Inc.
 340 Quinnipiac St., Bldg. 40, Wallingford CT 06492
  
  
 ---------------------------------------------------------------
 Warning -- This program may not be used in any manner that
 competes with the business of Gaussian, Inc. or will provide
 assistance to any competitor of Gaussian, Inc.  The licensee
 of this program is prohibited from giving any competitor of
 Gaussian, Inc. access to this program.  By using this program,
 the user acknowledges that Gaussian, Inc. is engaged in the
 business of creating and licensing software in the field of
 computational chemistry and represents and warrants to the
 licensee that it is not a competitor of Gaussian, Inc. and that
 it will not use this program in any manner prohibited above.
 ---------------------------------------------------------------
  

 Cite this work as:
 Gaussian Development Version, Revision J.30+,
 M. J. Frisch, G. W. Trucks, G. Scalmani, J. R. Cheeseman, X. Li, 
 J. Bloino, B. G. Janesko, A. V. Marenich, J. Zheng, F. Lipparini, 
 A. Jenkins, A. Liu, H. Liu, H. B. Schlegel, G. E. Scuseria, 
 M. A. Robb, V. Barone, G. A. Petersson, H. Nakatsuji, B. Mennucci, 
 C. Adamo, N. Rega, M. Caricato, H. P. Hratchian, J. V. Ortiz, 
 F. Pawlowski, A. F. Izmaylov, H. Hu, C. Liao, J. L. Sonnenberg, 
 D. Williams-Young, F. Ding, R. Gomperts, F. Egidi, J. Goings, 
 B. Peng, A. Petrone, T. Henderson, D. Ranasinghe, V. G. Zakrzewski, 
 J. Gao, G. Zheng, W. Liang, M. Hada, M. Ehara, K. Toyota, R. Fukuda, 
 J. Hasegawa, M. Ishida, T. Nakajima, Y. Honda, O. Kitao, H. Nakai, 
 T. Vreven, K. Throssell, J. A. Montgomery, Jr., J. E. Peralta, 
 F. Ogliaro, M. J. Bearpark, J. J. Heyd, E. N. Brothers, K. N. Kudin, 
 V. N. Staroverov, T. A. Keith, R. Kobayashi, J. Normand, 
 K. Raghavachari, A. P. Rendell, J. C. Burant, S. S. Iyengar, 
 M. Cossi, J. M. Millam, M. Klene, R. Cammi, R. L. Martin, O. Farkas, 
 J. B. Foresman, and D. J. Fox, Gaussian, Inc., Wallingford CT, 2024.
 
 *******************************************
 Gaussian DV:  ES64L-GDVRevJ.30+ 18-Dec-2024
                 30-Jul-2025 
 *******************************************
 %oldchk=ch2o_anion.chk
 %chk=ch2o_neutral_fc.chk
 Copying data from "ch2o_anion.chk" to current chk file "ch2o_neutral_fc.chk"
 IOpt=  2 FromEx=T IUOpen= 4 IOptOp= 5 NList=   0 IFRang= 0 IUIn= 4 IUOut= 2.
 ----------------------------------------------------------------------
 #P ChkBasis Freq=(ReadFC,FC,ReadFCHT) Geom=Checkpoint NOSYMM Guess=Rea
 d
 ----------------------------------------------------------------------
 1/29=2,37=-1,38=1,172=1/1;
 2/12=2,15=1/2;
 3/5=7,6=2,11=9,14=-4,25=1,30=1,67=1,116=-2/1;
 7/8=1,25=11,30=1,44=-1,71=10,121=1/16,18;
 99/5=5/99;
 Leave Link    1 at Wed Jul 30 07:40:29 2025, MaxMem= 12348030976 cpu:               0.4 elap:               0.1
 (Enter /home/hhratchian/gaussian/gdv-20250101-j30+/gdv/local/l101.exe)
 
  Hrant - IAPOps =                         0
  Hrant - IAPOp1 =                         0
  Hrant - IAPOp2 =                         0
  Hrant - DoAP   =   F
 
 -----------------------------------------
 Franck–Condon Calculation: ch2o_neutral
 -----------------------------------------
 Structure from the checkpoint file:  "ch2o_neutral_fc.chk"
 Charge =     0 Multiplicity =     1
 Redundant internal coordinates found in file.  (GICs).
 C,0,-0.133938,-0.011101,-0.001098
 O,0,0.045131,0.073984,1.318475
 H,0,0.039255,0.88882,-0.655652
 H,0,0.149552,-0.951703,-0.551725
 
 Recover connectivity data from disk.
 Reading GIC definitions from chk.
 Reading GIC derivative info from chk.
 ITRead=  0  0  0  0
 MicOpt= -1 -1 -1 -1
                           ----------------------------
                           !    Current Parameters    !
                           ! (Angstroms and Degrees)  !
 --------------------------                            --------------------------
 ! Name  Definition              Value          Derivative Info.                !
 --------------------------------------------------------------------------------
 ! R1    R(1,2)                  1.3344         estimate D2E/DX2                !
 ! R2    R(1,3)                  1.1262         estimate D2E/DX2                !
 ! R3    R(1,4)                  1.1262         estimate D2E/DX2                !
 ! A1    A(2,1,3)              120.2101         estimate D2E/DX2                !
 ! A2    A(2,1,4)              120.1974         estimate D2E/DX2                !
 ! A3    A(3,1,4)              110.1526         estimate D2E/DX2                !
 ! D1    D(2,1,4,3)           -146.4819         estimate D2E/DX2                !
 --------------------------------------------------------------------------------
 NAtoms=      4 NQM=        4 NQMF=       0 NMMI=      0 NMMIF=      0
                NMic=       0 NMicF=      0.
                    Isotopes and Nuclear Properties:
 (Nuclear quadrupole moments (NQMom) in fm**2, nuclear magnetic moments (NMagM)
  in nuclear magnetons)

  Atom         1           2           3           4
 IAtWgt=          12          16           1           1
 AtmWgt=  12.0000000  15.9949146   1.0078250   1.0078250
 NucSpn=           0           0           1           1
 AtZEff=    3.600000    5.600000    1.000000    1.000000
 NQMom=    0.0000000   0.0000000   0.0000000   0.0000000
 NMagM=    0.0000000   0.0000000   2.7928460   2.7928460
 AtZNuc=   6.0000000   8.0000000   1.0000000   1.0000000
 Leave Link  101 at Wed Jul 30 07:40:29 2025, MaxMem= 12348030976 cpu:               0.3 elap:               0.2
 (Enter /home/hhratchian/gaussian/gdv-20250101-j30+/gdv/l202.exe)
                          Input orientation:                          
 ---------------------------------------------------------------------
 Center     Atomic      Atomic             Coordinates (Angstroms)
 Number     Number       Type             X           Y           Z
 ---------------------------------------------------------------------
      1          6           0       -0.133938   -0.011101   -0.001098
      2          8           0        0.045131    0.073984    1.318475
      3          1           0        0.039255    0.888820   -0.655652
      4          1           0        0.149552   -0.951703   -0.551725
 ---------------------------------------------------------------------
                    Distance matrix (angstroms):
                    1          2          3          4
     1  C    0.000000
     2  O    1.334383   0.000000
     3  H    1.126186   2.135690   0.000000
     4  H    1.126183   2.135553   1.846752   0.000000
 Symmetry turned off by external request.
 Stoichiometry    CH2O
 Framework group  C1[X(CH2O)]
 Deg. of freedom     6
 Full point group                 C1      NOp   1
 Rotational constants (GHZ):         271.9722108          32.1757276          29.2366275
 Leave Link  202 at Wed Jul 30 07:40:29 2025, MaxMem= 12348030976 cpu:               0.3 elap:               0.0
 (Enter /home/hhratchian/gaussian/gdv-20250101-j30+/gdv/local/l301.exe)
 Basis read from chk: "ch2o_neutral_fc.chk" (6D, 7F)
 No pseudopotential information found on chk file.
    22 basis functions,    52 primitive gaussians,    22 cartesian basis functions
     8 alpha electrons        8 beta electrons
       nuclear repulsion energy        28.9251356577 Hartrees.
 IExCor=         0 DFT=F Ex=HF Corr=None N6=None ScaHFX=  1.000000
 ScaDFX=  1.000000  1.000000  1.000000  1.000000  1.000000  0.000000
 ScaDFX=  0.000000  0.000000  0.000000  0.000000  0.000000  0.000000
 Grid=UltraFine IRanWt=     -1 IRanGd=            0 ICorTp=0 IEDCtl=  2004
 NAtoms=    4 NActive=    4 NUniq=    4 SFac= 1.00D+00 NAtFMM=   60 NAOKFM=F Big=F
 Integral buffers will be    131072 words long.
 Raffenetti 2 integral format.
 Two-electron integral symmetry is turned off.
 No density basis found on file 200724.
 Leave Link  301 at Wed Jul 30 07:40:29 2025, MaxMem= 12348030976 cpu:               0.2 elap:               0.1
 (Enter /home/hhratchian/gaussian/gdv-20250101-j30+/gdv/l716.exe)
 Electric field and nuclear coordinate derivatives read from checkpoint file.
 Dipole        = 1.43524846D-01-1.04292191D-02-3.37759334D-01
 Polarizability= 7.72560786D+00-5.65506921D-01 1.75308084D+01
                 4.08158825D-01 3.71505112D-01 2.37206566D+01
 Full mass-weighted force constant matrix:
 Low frequencies ---   -3.1720   -0.0014    0.0010    0.0011    6.2992   17.8669
 Low frequencies ---  689.8635 1176.3673 1293.6786
 Diagonal vibrational polarizability:
        0.7626102       2.8438246       3.4789334
 Harmonic frequencies (cm**-1), IR intensities (KM/Mole), Raman scattering
 activities (A**4/AMU), depolarization ratios for plane and unpolarized
 incident light, reduced masses (AMU), force constants (mDyne/A),
 and normal coordinates:
                      1                      2                      3
                      A                      A                      A
 Frequencies --    689.8634              1176.3673              1293.6786
 Red. masses --      1.3451                 1.2734                 5.5530
 Frc consts  --      0.3772                 1.0383                 5.4756
 IR Inten    --     32.3565                 3.8838                50.0040
  Atom  AN      X      Y      Z        X      Y      Z        X      Y      Z
     1   6    -0.17  -0.01   0.02    -0.01   0.13  -0.01    -0.08  -0.03  -0.44
     2   8     0.04   0.00  -0.02     0.00  -0.07   0.00     0.05   0.03   0.39
     3   1     0.69  -0.02   0.10    -0.15  -0.28  -0.62     0.10  -0.18  -0.53
     4   1     0.68   0.11   0.09     0.18  -0.19   0.65     0.08   0.13  -0.55
                      4                      5                      6
                      A                      A                      A
 Frequencies --   1541.5227              2683.0782              2688.6320
 Red. masses --      1.1785                 1.1127                 1.0343
 Frc consts  --      1.6500                 4.7195                 4.4051
 IR Inten    --     57.6645               741.1422               255.8626
  Atom  AN      X      Y      Z        X      Y      Z        X      Y      Z
     1   6    -0.01  -0.01  -0.12     0.01  -0.10   0.01     0.01  -0.00  -0.05
     2   8     0.01   0.00   0.02    -0.00   0.00  -0.00     0.00  -0.00  -0.01
     3   1    -0.07   0.41   0.57     0.11   0.57  -0.41    -0.05  -0.60   0.37
     4   1    -0.02  -0.35   0.61    -0.18   0.59   0.34    -0.12   0.63   0.30

 -------------------
 - Thermochemistry -
 -------------------
 Temperature 298.150 Kelvin.  Pressure 1.00000 Atm.
 Atom     1 has atomic number  6 and mass  12.00000
 Atom     2 has atomic number  8 and mass  15.99491
 Atom     3 has atomic number  1 and mass   1.00783
 Atom     4 has atomic number  1 and mass   1.00783
 Molecular mass:    30.01056 amu.
 Principal axes and moments of inertia in atomic units:
                                 1                 2                 3
     Eigenvalues --            6.635756         56.090144         61.728775
           X                   0.084669         -0.059734          0.994617
           Y                   0.061111          0.996634          0.054653
           Z                   0.994533         -0.056155         -0.088035
 This molecule is an asymmetric top.
 Rotational symmetry number  1.
 Rotational temperatures (Kelvin)     13.05261     1.54419     1.40314
 Rotational constants (GHZ):         271.97221    32.17573    29.23663
 Zero-point vibrational energy      60250.8 (Joules/Mol)
                                   14.40028 (Kcal/Mol)
 Vibrational temperatures:    992.56  1692.53  1861.31  2217.91  3860.35
          (Kelvin)           3868.34
 
 Zero-point correction=                           0.022948 (Hartree/Particle)
 Thermal correction to Energy=                    0.025932
 Thermal correction to Enthalpy=                  0.026876
 Thermal correction to Gibbs Free Energy=         0.001070
 Sum of electronic and zero-point Energies=           -114.385787
 Sum of electronic and thermal Energies=              -114.382804
 Sum of electronic and thermal Enthalpies=            -114.381859
 Sum of electronic and thermal Free Energies=         -114.407665
 
                     E (Thermal)             CV                S
                      KCal/Mol        Cal/Mol-Kelvin    Cal/Mol-Kelvin
 Total                   16.272              7.249             54.313
 Electronic               0.000              0.000              0.000
 Translational            0.889              2.981             36.130
 Rotational               0.889              2.981             17.781
 Vibrational             14.495              1.287              0.402
                       Q            Log10(Q)             Ln(Q)
 Total Bot       0.321960D+00         -0.492198         -1.133329
 Total V=0       0.115686D+11         10.063280         23.171560
 Vib (Bot)       0.290375D-10        -10.537042        -24.262435
 Vib (V=0)       0.104337D+01          0.018437          0.042454
 Electronic      0.100000D+01          0.000000          0.000000
 Translational   0.646197D+07          6.810365         15.681445
 Rotational      0.171584D+04          3.234478          7.447661
 
                                              Franck–Condon Calculation: ch2o_n
 eutral
                                                             IR Spectrum
 
     22                                                     1          1     1                                                       
     66                                                     5          2     1                      6                                
     88                                                     4          9     7                      9                                
     93                                                     2          4     6                      0                                
 
     XX                                                     X          X     X                      X                                
     XX                                                     X                                                                        
     XX                                                                                                                              
     XX                                                                                                                              
     XX                                                                                                                              
     XX                                                                                                                              
     XX                                                                                                                              
      X                                                                                                                              
      X                                                                                                                              
      X                                                                                                                              
      X                                                                                                                              
      X                                                                                                                              
      X                                                                                                                              
      X                                                                                                                              
      X                                                                                                                              
      X                                                                                                                              
      X                                                                                                                              
      X                                                                                                                              
      X                                                                                                                              
      X                                                                                                                              
 
 -------------------------------------------------------------------
 Center     Atomic                   Forces (Hartrees/Bohr)
 Number     Number              X              Y              Z
 -------------------------------------------------------------------
      1        6          -0.000029458   -0.000027342   -0.000080927
      2        8           0.000018263    0.000017353    0.000021207
      3        1           0.000009343   -0.000020325    0.000040118
      4        1           0.000001852    0.000030315    0.000019602
 -------------------------------------------------------------------
 Cartesian Forces:  Max     0.000080927 RMS     0.000032488
 Force constants in Cartesian coordinates: 
                1             2             3             4             5 
      1  0.718819D-01
      2 -0.196884D-01  0.439660D+00
      3  0.424290D-01  0.920646D-02  0.558776D+00
      4 -0.254881D-01 -0.976881D-03 -0.692924D-01  0.148794D-01
      5 -0.737658D-03 -0.756990D-01 -0.219914D-01  0.935940D-03  0.525290D-01
      6 -0.650784D-01 -0.217420D-01 -0.390867D+00  0.549505D-01  0.267195D-01
      7 -0.185865D-01 -0.420649D-01  0.129107D-01  0.480835D-02  0.766326D-02
      8 -0.143938D-01 -0.179590D+00  0.642621D-01  0.294938D-03  0.146308D-01
      9  0.875636D-02  0.721446D-01 -0.909535D-01  0.543137D-02  0.262575D-01
     10 -0.278073D-01  0.627302D-01  0.139527D-01  0.580030D-02 -0.786154D-02
     11  0.348199D-01 -0.184371D+00 -0.514772D-01 -0.253997D-03  0.853921D-02
     12  0.138930D-01 -0.596091D-01 -0.769551D-01  0.891055D-02 -0.309856D-01
                6             7             8             9            10 
      6  0.466397D+00
      7  0.363046D-02  0.115202D-01
      8  0.139827D-01  0.225065D-01  0.192228D+00
      9 -0.403090D-01 -0.146889D-01 -0.903387D-01  0.122317D+00
     10  0.649740D-02  0.225798D-02 -0.840770D-02  0.501190D-03  0.197490D-01
     11 -0.189601D-01  0.118951D-01 -0.272685D-01 -0.806342D-02 -0.464610D-01
     12 -0.352205D-01 -0.185223D-02  0.120939D-01  0.894519D-02 -0.209513D-01
               11            12 
     11  0.203100D+00
     12  0.785007D-01  0.103230D+00
 FormGI is forming the generalized inverse of G from B-inverse, IUseBI=4.
 NTrRot=    -1 NTRed=     7 NAtoms=     4 NSkip=     1 NRank=     6 IsLin=F EigSml=6.4213D-01
 Force constants in internal coordinates: 
                1             2             3             4             5 
      1  0.474554D+00
      2  0.343241D-01  0.256409D+00
      3  0.343313D-01  0.903600D-02  0.256415D+00
      4  0.149846D-01 -0.123080D-02 -0.116110D-01  0.975196D-01
      5  0.178928D-01 -0.542620D-02  0.650600D-02 -0.667093D-01  0.127844D+00
      6 -0.305076D-01  0.180462D-01  0.187660D-01 -0.497105D-01 -0.371680D-01
      7 -0.745959D-02 -0.182697D-01 -0.178201D-01 -0.521450D-02 -0.885889D-02
                6             7 
      6  0.969715D-01
      7 -0.268682D-02  0.280492D-01
 Leave Link  716 at Wed Jul 30 07:40:29 2025, MaxMem= 12348030976 cpu:               0.2 elap:               0.0
 (Enter /home/hhratchian/gaussian/gdv-20250101-j30+/gdv/l718.exe)

 **********************************************************************

                Generation of the Franck-Condon spectrum

 **********************************************************************

     ==================================================
            Parameters for vibronic calculations
     ==================================================

 Additional Input for Vibronic Calculations
 ------------------------------------------
 Spectrum=(Broadening=Stick,Lower=-10000.0,Upper=40000.0) temperature=298.15
 --- end of non-standard input.

     ==================================================
               Information on the Simulation
     ==================================================

 General framework: TIME-INDEPENDENT
 Spectroscopy: ONE-PHOTON ABSORPTION
 Model for the transition: ADIABATIC HESSIAN
 Approx. of the electronic transition moment(s): FC
 Temperature of simulation:  298.15K

     ==================================================
                  Treatment of Input Data
     ==================================================

 Data for initial state
 ----------------------
 Data taken from current calculation.
 Normal modes recovered from file.

 Data for final state
 --------------------
 Data taken from checkpoint file "ch2o_neutral.chk"
 Normal modes recovered from file.
 No electronic transition dipole moment has been found.
 A fully-allowed transition is assumed for FC calculations.

     ==================================================
                  Superposition Procedure
     ==================================================

 Geometry of initial state set in Eckart orientation.
              New orientation in initial state              
 ---------------------------------------------------------------------
 Center     Atomic                     Coordinates (Angstroms)
 Number     Number                        X           Y           Z
 ---------------------------------------------------------------------
      1          6                    0.671272    0.000004   -0.054231
      2          8                   -0.661449    0.000006    0.012355
      3          1                    1.252588    0.923306    0.224836
      4          1                    1.252367   -0.923445    0.224800
 ---------------------------------------------------------------------

 Geometry of final state superposed to maximize overlap.
               New orientation in final state               
 ---------------------------------------------------------------------
 Center     Atomic                     Coordinates (Angstroms)
 Number     Number                        X           Y           Z
 ---------------------------------------------------------------------
      1          6                    0.616995   -0.000015    0.000960
      2          8                   -0.614614    0.000015   -0.000957
      3          1                    1.203982    0.933370    0.001892
      4          1                    1.203936   -0.933430    0.001857
 ---------------------------------------------------------------------

     ==================================================
                 Duschinsky Transformation
     ==================================================

 NOTE: Default maximum number of excited modes for the final state
       exceeds the total number of vibrations of the system.  Correcting.

     ==================================================
              Calculations of Band Intensities
     ==================================================

 -- To: vibronic fundamental state --
    Spectrum progression:    2.52%

 -- To: single overtones --
    Spectrum progression:   25.81%

 -- To: combinations of  2 simultaneously excited modes --
    Spectrum progression:   70.77%

 -- To: combinations of  3 simultaneously excited modes --
 WARNING: insufficient num. of quanta (C1) for mode      1
    Spectrum progression:   98.98%

 -- To: combinations of  4 simultaneously excited modes --
 WARNING: insufficient num. of quanta (C1) for mode      1
    Spectrum progression:   99.96%

 -- To: combinations of  5 simultaneously excited modes --
 WARNING: insufficient num. of quanta (C1) for mode      1
    Spectrum progression:   99.97%

 -- To: combinations of  6 simultaneously excited modes --
 WARNING: insufficient num. of quanta (C1) for mode      1
    Spectrum progression:   99.97%

   ## NOW TREATING 2 SIMULATENOUSLY EXCITED MODES IN INITIAL STATE ##

   ## NOW TREATING 3 SIMULATENOUSLY EXCITED MODES IN INITIAL STATE ##
 End of treatment for the populated initial states.

 Final progression:   99.97%

     ==================================================
                 Information on Transitions
     ==================================================

 Energy of the 0-0 transition:  12355.9700 cm^(-1)

 NOTE: The energy (transition energy) refers to the relative energy,
       with respect to the 0-0 transition energy
       The intensity is the line intensity.
       DipStr is the dipole strength.

 Energy =      0.0000 cm^-1: |0> -> |0>
   -> Intensity = 0.2187E+06 (DipStr = 0.2517E-01)

 Energy =   1203.2662 cm^-1: |0> -> |1^1>
   -> Intensity = 0.3634E+06 (DipStr = 0.3810E-01)

 Energy =   1560.3177 cm^-1: |0> -> |3^1>
   -> Intensity = 0.1751E+06 (DipStr = 0.1789E-01)

 Energy =   1748.2036 cm^-1: |0> -> |4^1>
   -> Intensity = 0.2063E+06 (DipStr = 0.2079E-01)

 Energy =   2406.5324 cm^-1: |0> -> |1^2>
   -> Intensity = 0.4023E+06 (DipStr = 0.3875E-01)

 Energy =   2763.5839 cm^-1: |0> -> |3^1;1^1>
   -> Intensity = 0.2616E+06 (DipStr = 0.2460E-01)

 Energy =   2951.4698 cm^-1: |0> -> |4^1;1^1>
   -> Intensity = 0.3377E+06 (DipStr = 0.3137E-01)

 Energy =   3308.5213 cm^-1: |0> -> |4^1;3^1>
   -> Intensity = 0.1813E+06 (DipStr = 0.1645E-01)

 Energy =   3496.4072 cm^-1: |0> -> |4^2>
   -> Intensity = 0.1218E+06 (DipStr = 0.1093E-01)

 Energy =   3609.7986 cm^-1: |0> -> |1^3>
   -> Intensity = 0.3567E+06 (DipStr = 0.3177E-01)

 Energy =   3966.8501 cm^-1: |0> -> |3^1;1^2>
   -> Intensity = 0.2670E+06 (DipStr = 0.2326E-01)

 Energy =   4154.7360 cm^-1: |0> -> |4^1;1^2>
   -> Intensity = 0.3696E+06 (DipStr = 0.3183E-01)

 Energy =   4511.7875 cm^-1: |0> -> |4^1;3^1;1^1>
   -> Intensity = 0.2688E+06 (DipStr = 0.2266E-01)

 Energy =   4699.6734 cm^-1: |0> -> |4^2;1^1>
   -> Intensity = 0.1972E+06 (DipStr = 0.1644E-01)

 Energy =   4813.0648 cm^-1: |0> -> |1^4>
   -> Intensity = 0.2743E+06 (DipStr = 0.2272E-01)

 Energy =   5170.1163 cm^-1: |0> -> |3^1;1^3>
   -> Intensity = 0.2201E+06 (DipStr = 0.1786E-01)

 Energy =   5358.0023 cm^-1: |0> -> |4^1;1^3>
   -> Intensity = 0.3244E+06 (DipStr = 0.2604E-01)

 Energy =   5715.0537 cm^-1: |0> -> |4^1;3^1;1^2>
   -> Intensity = 0.2727E+06 (DipStr = 0.2146E-01)

 Energy =   5902.9397 cm^-1: |0> -> |4^2;1^2>
   -> Intensity = 0.2138E+06 (DipStr = 0.1665E-01)

 Energy =   6016.3311 cm^-1: |0> -> |1^5>
   -> Intensity = 0.1902E+06 (DipStr = 0.1472E-01)

 Energy =   6259.9911 cm^-1: |0> -> |4^2;3^1;1^1>
   -> Intensity = 0.1689E+06 (DipStr = 0.1290E-01)

 Energy =   6373.3825 cm^-1: |0> -> |3^1;1^4>
   -> Intensity = 0.1585E+06 (DipStr = 0.1203E-01)

 Energy =   6561.2685 cm^-1: |0> -> |4^1;1^4>
   -> Intensity = 0.2472E+06 (DipStr = 0.1858E-01)

 Energy =   6918.3199 cm^-1: |0> -> |4^1;3^1;1^3>
   -> Intensity = 0.2237E+06 (DipStr = 0.1651E-01)

 Energy =   7106.2059 cm^-1: |0> -> |4^2;1^3>
   -> Intensity = 0.1861E+06 (DipStr = 0.1360E-01)

 Energy =   7463.2573 cm^-1: |0> -> |4^2;3^1;1^2>
   -> Intensity = 0.1704E+06 (DipStr = 0.1223E-01)

 Energy =   7764.5347 cm^-1: |0> -> |4^1;1^5>
   -> Intensity = 0.1701E+06 (DipStr = 0.1202E-01)

 Energy =   8121.5861 cm^-1: |0> -> |4^1;3^1;1^4>
   -> Intensity = 0.1604E+06 (DipStr = 0.1114E-01)

     ==================================================
                       Final Spectrum
     ==================================================

 No band broadening applied (stick spectrum)
 NOTE: The total Boltzmann population is:     0.100000E+01

 Legend:
 -------
 1st col.: Energy (in cm^-1)
 2nd col.: Intensity at T=298.1K
 Intensity: Molar absorption coefficient (in dm^3.mol^-1.cm^-1)
 -----------------------------
     2355.9700    0.000000D+00
     2357.9700    0.000000D+00
     2359.9700    0.000000D+00
     2361.9700    0.000000D+00
     2363.9700    0.000000D+00
     2365.9700    0.000000D+00
     2367.9700    0.000000D+00
     2369.9700    0.000000D+00
     2371.9700    0.000000D+00
     2373.9700    0.000000D+00
     2375.9700    0.000000D+00
     2377.9700    0.000000D+00
     2379.9700    0.000000D+00
     2381.9700    0.000000D+00
     2383.9700    0.000000D+00
     2385.9700    0.000000D+00
     2387.9700    0.000000D+00
     2389.9700    0.000000D+00
     2391.9700    0.000000D+00
     2393.9700    0.000000D+00
     2395.9700    0.000000D+00
     2397.9700    0.000000D+00
     2399.9700    0.000000D+00
     2401.9700    0.000000D+00
     2403.9700    0.000000D+00
     2405.9700    0.000000D+00
     2407.9700    0.000000D+00
     2409.9700    0.000000D+00
     2411.9700    0.000000D+00
     2413.9700    0.000000D+00
     2415.9700    0.000000D+00
     2417.9700    0.000000D+00
     2419.9700    0.000000D+00
     2421.9700    0.000000D+00
     2423.9700    0.000000D+00
     2425.9700    0.000000D+00
     2427.9700    0.000000D+00
     2429.9700    0.000000D+00
     2431.9700    0.000000D+00
     2433.9700    0.000000D+00
     2435.9700    0.000000D+00
     2437.9700    0.000000D+00
     2439.9700    0.000000D+00
     2441.9700    0.000000D+00
     2443.9700    0.000000D+00
     2445.9700    0.000000D+00
     2447.9700    0.000000D+00
     2449.9700    0.000000D+00
     2451.9700    0.000000D+00
     2453.9700    0.000000D+00
     2455.9700    0.000000D+00
     2457.9700    0.000000D+00
     2459.9700    0.000000D+00
     2461.9700    0.000000D+00
     2463.9700    0.000000D+00
     2465.9700    0.000000D+00
     2467.9700    0.000000D+00
     2469.9700    0.000000D+00
     2471.9700    0.000000D+00
     2473.9700    0.000000D+00
     2475.9700    0.000000D+00
     2477.9700    0.000000D+00
     2479.9700    0.000000D+00
     2481.9700    0.000000D+00
     2483.9700    0.000000D+00
     2485.9700    0.000000D+00
     2487.9700    0.000000D+00
     2489.9700    0.000000D+00
     2491.9700    0.000000D+00
     2493.9700    0.000000D+00
     2495.9700    0.000000D+00
     2497.9700    0.000000D+00
     2499.9700    0.000000D+00
     2501.9700    0.000000D+00
     2503.9700    0.000000D+00
     2505.9700    0.000000D+00
     2507.9700    0.000000D+00
     2509.9700    0.000000D+00
     2511.9700    0.000000D+00
     2513.9700    0.000000D+00
     2515.9700    0.000000D+00
     2517.9700    0.000000D+00
     2519.9700    0.000000D+00
     2521.9700    0.000000D+00
     2523.9700    0.000000D+00
     2525.9700    0.000000D+00
     2527.9700    0.000000D+00
     2529.9700    0.000000D+00
     2531.9700    0.000000D+00
     2533.9700    0.000000D+00
     2535.9700    0.000000D+00
     2537.9700    0.000000D+00
     2539.9700    0.000000D+00
     2541.9700    0.000000D+00
     2543.9700    0.000000D+00
     2545.9700    0.000000D+00
     2547.9700    0.000000D+00
     2549.9700    0.000000D+00
     2551.9700    0.000000D+00
     2553.9700    0.000000D+00
     2555.9700    0.000000D+00
     2557.9700    0.000000D+00
     2559.9700    0.000000D+00
     2561.9700    0.000000D+00
     2563.9700    0.000000D+00
     2565.9700    0.000000D+00
     2567.9700    0.000000D+00
     2569.9700    0.000000D+00
     2571.9700    0.000000D+00
     2573.9700    0.000000D+00
     2575.9700    0.000000D+00
     2577.9700    0.000000D+00
     2579.9700    0.000000D+00
     2581.9700    0.000000D+00
     2583.9700    0.000000D+00
     2585.9700    0.000000D+00
     2587.9700    0.000000D+00
     2589.9700    0.000000D+00
     2591.9700    0.000000D+00
     2593.9700    0.000000D+00
     2595.9700    0.000000D+00
     2597.9700    0.000000D+00
     2599.9700    0.000000D+00
     2601.9700    0.000000D+00
     2603.9700    0.000000D+00
     2605.9700    0.000000D+00
     2607.9700    0.000000D+00
     2609.9700    0.000000D+00
     2611.9700    0.000000D+00
     2613.9700    0.000000D+00
     2615.9700    0.000000D+00
     2617.9700    0.000000D+00
     2619.9700    0.000000D+00
     2621.9700    0.000000D+00
     2623.9700    0.000000D+00
     2625.9700    0.000000D+00
     2627.9700    0.000000D+00
     2629.9700    0.000000D+00
     2631.9700    0.000000D+00
     2633.9700    0.000000D+00
     2635.9700    0.000000D+00
     2637.9700    0.000000D+00
     2639.9700    0.000000D+00
     2641.9700    0.000000D+00
     2643.9700    0.000000D+00
     2645.9700    0.000000D+00
     2647.9700    0.000000D+00
     2649.9700    0.000000D+00
     2651.9700    0.000000D+00
     2653.9700    0.000000D+00
     2655.9700    0.000000D+00
     2657.9700    0.000000D+00
     2659.9700    0.000000D+00
     2661.9700    0.000000D+00
     2663.9700    0.000000D+00
     2665.9700    0.000000D+00
     2667.9700    0.000000D+00
     2669.9700    0.000000D+00
     2671.9700    0.000000D+00
     2673.9700    0.000000D+00
     2675.9700    0.000000D+00
     2677.9700    0.000000D+00
     2679.9700    0.000000D+00
     2681.9700    0.000000D+00
     2683.9700    0.000000D+00
     2685.9700    0.000000D+00
     2687.9700    0.000000D+00
     2689.9700    0.000000D+00
     2691.9700    0.000000D+00
     2693.9700    0.000000D+00
     2695.9700    0.000000D+00
     2697.9700    0.000000D+00
     2699.9700    0.000000D+00
     2701.9700    0.000000D+00
     2703.9700    0.000000D+00
     2705.9700    0.000000D+00
     2707.9700    0.000000D+00
     2709.9700    0.000000D+00
     2711.9700    0.000000D+00
     2713.9700    0.000000D+00
     2715.9700    0.000000D+00
     2717.9700    0.000000D+00
     2719.9700    0.000000D+00
     2721.9700    0.000000D+00
     2723.9700    0.000000D+00
     2725.9700    0.000000D+00
     2727.9700    0.000000D+00
     2729.9700    0.000000D+00
     2731.9700    0.000000D+00
     2733.9700    0.000000D+00
     2735.9700    0.000000D+00
     2737.9700    0.000000D+00
     2739.9700    0.000000D+00
     2741.9700    0.000000D+00
     2743.9700    0.000000D+00
     2745.9700    0.000000D+00
     2747.9700    0.000000D+00
     2749.9700    0.000000D+00
     2751.9700    0.000000D+00
     2753.9700    0.000000D+00
     2755.9700    0.000000D+00
     2757.9700    0.000000D+00
     2759.9700    0.000000D+00
     2761.9700    0.000000D+00
     2763.9700    0.000000D+00
     2765.9700    0.000000D+00
     2767.9700    0.000000D+00
     2769.9700    0.000000D+00
     2771.9700    0.000000D+00
     2773.9700    0.000000D+00
     2775.9700    0.000000D+00
     2777.9700    0.000000D+00
     2779.9700    0.000000D+00
     2781.9700    0.000000D+00
     2783.9700    0.000000D+00
     2785.9700    0.000000D+00
     2787.9700    0.000000D+00
     2789.9700    0.000000D+00
     2791.9700    0.000000D+00
     2793.9700    0.000000D+00
     2795.9700    0.000000D+00
     2797.9700    0.000000D+00
     2799.9700    0.000000D+00
     2801.9700    0.000000D+00
     2803.9700    0.000000D+00
     2805.9700    0.000000D+00
     2807.9700    0.000000D+00
     2809.9700    0.000000D+00
     2811.9700    0.000000D+00
     2813.9700    0.000000D+00
     2815.9700    0.000000D+00
     2817.9700    0.000000D+00
     2819.9700    0.000000D+00
     2821.9700    0.000000D+00
     2823.9700    0.000000D+00
     2825.9700    0.000000D+00
     2827.9700    0.000000D+00
     2829.9700    0.000000D+00
     2831.9700    0.000000D+00
     2833.9700    0.000000D+00
     2835.9700    0.000000D+00
     2837.9700    0.000000D+00
     2839.9700    0.000000D+00
     2841.9700    0.000000D+00
     2843.9700    0.000000D+00
     2845.9700    0.000000D+00
     2847.9700    0.000000D+00
     2849.9700    0.000000D+00
     2851.9700    0.000000D+00
     2853.9700    0.000000D+00
     2855.9700    0.000000D+00
     2857.9700    0.000000D+00
     2859.9700    0.000000D+00
     2861.9700    0.000000D+00
     2863.9700    0.000000D+00
     2865.9700    0.000000D+00
     2867.9700    0.000000D+00
     2869.9700    0.000000D+00
     2871.9700    0.000000D+00
     2873.9700    0.000000D+00
     2875.9700    0.000000D+00
     2877.9700    0.000000D+00
     2879.9700    0.000000D+00
     2881.9700    0.000000D+00
     2883.9700    0.000000D+00
     2885.9700    0.000000D+00
     2887.9700    0.000000D+00
     2889.9700    0.000000D+00
     2891.9700    0.000000D+00
     2893.9700    0.000000D+00
     2895.9700    0.000000D+00
     2897.9700    0.000000D+00
     2899.9700    0.000000D+00
     2901.9700    0.000000D+00
     2903.9700    0.000000D+00
     2905.9700    0.000000D+00
     2907.9700    0.000000D+00
     2909.9700    0.000000D+00
     2911.9700    0.000000D+00
     2913.9700    0.000000D+00
     2915.9700    0.000000D+00
     2917.9700    0.000000D+00
     2919.9700    0.000000D+00
     2921.9700    0.000000D+00
     2923.9700    0.000000D+00
     2925.9700    0.000000D+00
     2927.9700    0.000000D+00
     2929.9700    0.000000D+00
     2931.9700    0.000000D+00
     2933.9700    0.000000D+00
     2935.9700    0.000000D+00
     2937.9700    0.000000D+00
     2939.9700    0.000000D+00
     2941.9700    0.000000D+00
     2943.9700    0.000000D+00
     2945.9700    0.000000D+00
     2947.9700    0.000000D+00
     2949.9700    0.000000D+00
     2951.9700    0.000000D+00
     2953.9700    0.000000D+00
     2955.9700    0.000000D+00
     2957.9700    0.000000D+00
     2959.9700    0.000000D+00
     2961.9700    0.000000D+00
     2963.9700    0.000000D+00
     2965.9700    0.000000D+00
     2967.9700    0.000000D+00
     2969.9700    0.000000D+00
     2971.9700    0.000000D+00
     2973.9700    0.000000D+00
     2975.9700    0.000000D+00
     2977.9700    0.000000D+00
     2979.9700    0.000000D+00
     2981.9700    0.000000D+00
     2983.9700    0.000000D+00
     2985.9700    0.000000D+00
     2987.9700    0.000000D+00
     2989.9700    0.000000D+00
     2991.9700    0.000000D+00
     2993.9700    0.000000D+00
     2995.9700    0.000000D+00
     2997.9700    0.000000D+00
     2999.9700    0.000000D+00
     3001.9700    0.000000D+00
     3003.9700    0.000000D+00
     3005.9700    0.000000D+00
     3007.9700    0.000000D+00
     3009.9700    0.000000D+00
     3011.9700    0.000000D+00
     3013.9700    0.000000D+00
     3015.9700    0.000000D+00
     3017.9700    0.000000D+00
     3019.9700    0.000000D+00
     3021.9700    0.000000D+00
     3023.9700    0.000000D+00
     3025.9700    0.000000D+00
     3027.9700    0.000000D+00
     3029.9700    0.000000D+00
     3031.9700    0.000000D+00
     3033.9700    0.000000D+00
     3035.9700    0.000000D+00
     3037.9700    0.000000D+00
     3039.9700    0.000000D+00
     3041.9700    0.000000D+00
     3043.9700    0.000000D+00
     3045.9700    0.000000D+00
     3047.9700    0.000000D+00
     3049.9700    0.000000D+00
     3051.9700    0.000000D+00
     3053.9700    0.000000D+00
     3055.9700    0.000000D+00
     3057.9700    0.000000D+00
     3059.9700    0.000000D+00
     3061.9700    0.000000D+00
     3063.9700    0.000000D+00
     3065.9700    0.000000D+00
     3067.9700    0.000000D+00
     3069.9700    0.000000D+00
     3071.9700    0.000000D+00
     3073.9700    0.000000D+00
     3075.9700    0.000000D+00
     3077.9700    0.000000D+00
     3079.9700    0.000000D+00
     3081.9700    0.000000D+00
     3083.9700    0.000000D+00
     3085.9700    0.000000D+00
     3087.9700    0.000000D+00
     3089.9700    0.000000D+00
     3091.9700    0.000000D+00
     3093.9700    0.000000D+00
     3095.9700    0.000000D+00
     3097.9700    0.000000D+00
     3099.9700    0.000000D+00
     3101.9700    0.000000D+00
     3103.9700    0.000000D+00
     3105.9700    0.000000D+00
     3107.9700    0.000000D+00
     3109.9700    0.000000D+00
     3111.9700    0.000000D+00
     3113.9700    0.000000D+00
     3115.9700    0.000000D+00
     3117.9700    0.000000D+00
     3119.9700    0.000000D+00
     3121.9700    0.000000D+00
     3123.9700    0.000000D+00
     3125.9700    0.000000D+00
     3127.9700    0.000000D+00
     3129.9700    0.000000D+00
     3131.9700    0.000000D+00
     3133.9700    0.000000D+00
     3135.9700    0.000000D+00
     3137.9700    0.000000D+00
     3139.9700    0.000000D+00
     3141.9700    0.000000D+00
     3143.9700    0.000000D+00
     3145.9700    0.000000D+00
     3147.9700    0.000000D+00
     3149.9700    0.000000D+00
     3151.9700    0.000000D+00
     3153.9700    0.000000D+00
     3155.9700    0.000000D+00
     3157.9700    0.000000D+00
     3159.9700    0.000000D+00
     3161.9700    0.000000D+00
     3163.9700    0.000000D+00
     3165.9700    0.000000D+00
     3167.9700    0.000000D+00
     3169.9700    0.000000D+00
     3171.9700    0.000000D+00
     3173.9700    0.000000D+00
     3175.9700    0.000000D+00
     3177.9700    0.000000D+00
     3179.9700    0.000000D+00
     3181.9700    0.000000D+00
     3183.9700    0.000000D+00
     3185.9700    0.000000D+00
     3187.9700    0.000000D+00
     3189.9700    0.000000D+00
     3191.9700    0.000000D+00
     3193.9700    0.000000D+00
     3195.9700    0.000000D+00
     3197.9700    0.000000D+00
     3199.9700    0.000000D+00
     3201.9700    0.000000D+00
     3203.9700    0.000000D+00
     3205.9700    0.000000D+00
     3207.9700    0.000000D+00
     3209.9700    0.000000D+00
     3211.9700    0.000000D+00
     3213.9700    0.000000D+00
     3215.9700    0.000000D+00
     3217.9700    0.000000D+00
     3219.9700    0.000000D+00
     3221.9700    0.000000D+00
     3223.9700    0.000000D+00
     3225.9700    0.000000D+00
     3227.9700    0.000000D+00
     3229.9700    0.000000D+00
     3231.9700    0.000000D+00
     3233.9700    0.000000D+00
     3235.9700    0.000000D+00
     3237.9700    0.000000D+00
     3239.9700    0.000000D+00
     3241.9700    0.000000D+00
     3243.9700    0.000000D+00
     3245.9700    0.000000D+00
     3247.9700    0.000000D+00
     3249.9700    0.000000D+00
     3251.9700    0.000000D+00
     3253.9700    0.000000D+00
     3255.9700    0.000000D+00
     3257.9700    0.000000D+00
     3259.9700    0.000000D+00
     3261.9700    0.000000D+00
     3263.9700    0.000000D+00
     3265.9700    0.000000D+00
     3267.9700    0.000000D+00
     3269.9700    0.000000D+00
     3271.9700    0.000000D+00
     3273.9700    0.000000D+00
     3275.9700    0.000000D+00
     3277.9700    0.000000D+00
     3279.9700    0.000000D+00
     3281.9700    0.000000D+00
     3283.9700    0.000000D+00
     3285.9700    0.000000D+00
     3287.9700    0.000000D+00
     3289.9700    0.000000D+00
     3291.9700    0.000000D+00
     3293.9700    0.000000D+00
     3295.9700    0.000000D+00
     3297.9700    0.000000D+00
     3299.9700    0.000000D+00
     3301.9700    0.000000D+00
     3303.9700    0.000000D+00
     3305.9700    0.000000D+00
     3307.9700    0.000000D+00
     3309.9700    0.000000D+00
     3311.9700    0.000000D+00
     3313.9700    0.000000D+00
     3315.9700    0.000000D+00
     3317.9700    0.000000D+00
     3319.9700    0.000000D+00
     3321.9700    0.000000D+00
     3323.9700    0.000000D+00
     3325.9700    0.000000D+00
     3327.9700    0.000000D+00
     3329.9700    0.000000D+00
     3331.9700    0.000000D+00
     3333.9700    0.000000D+00
     3335.9700    0.000000D+00
     3337.9700    0.000000D+00
     3339.9700    0.000000D+00
     3341.9700    0.000000D+00
     3343.9700    0.000000D+00
     3345.9700    0.000000D+00
     3347.9700    0.000000D+00
     3349.9700    0.000000D+00
     3351.9700    0.000000D+00
     3353.9700    0.000000D+00
     3355.9700    0.000000D+00
     3357.9700    0.000000D+00
     3359.9700    0.000000D+00
     3361.9700    0.000000D+00
     3363.9700    0.000000D+00
     3365.9700    0.000000D+00
     3367.9700    0.000000D+00
     3369.9700    0.000000D+00
     3371.9700    0.000000D+00
     3373.9700    0.000000D+00
     3375.9700    0.000000D+00
     3377.9700    0.000000D+00
     3379.9700    0.000000D+00
     3381.9700    0.000000D+00
     3383.9700    0.000000D+00
     3385.9700    0.000000D+00
     3387.9700    0.000000D+00
     3389.9700    0.000000D+00
     3391.9700    0.000000D+00
     3393.9700    0.000000D+00
     3395.9700    0.000000D+00
     3397.9700    0.000000D+00
     3399.9700    0.000000D+00
     3401.9700    0.000000D+00
     3403.9700    0.000000D+00
     3405.9700    0.000000D+00
     3407.9700    0.000000D+00
     3409.9700    0.000000D+00
     3411.9700    0.000000D+00
     3413.9700    0.000000D+00
     3415.9700    0.000000D+00
     3417.9700    0.000000D+00
     3419.9700    0.000000D+00
     3421.9700    0.000000D+00
     3423.9700    0.000000D+00
     3425.9700    0.000000D+00
     3427.9700    0.000000D+00
     3429.9700    0.000000D+00
     3431.9700    0.000000D+00
     3433.9700    0.000000D+00
     3435.9700    0.000000D+00
     3437.9700    0.000000D+00
     3439.9700    0.000000D+00
     3441.9700    0.000000D+00
     3443.9700    0.000000D+00
     3445.9700    0.000000D+00
     3447.9700    0.000000D+00
     3449.9700    0.000000D+00
     3451.9700    0.000000D+00
     3453.9700    0.000000D+00
     3455.9700    0.000000D+00
     3457.9700    0.000000D+00
     3459.9700    0.000000D+00
     3461.9700    0.000000D+00
     3463.9700    0.000000D+00
     3465.9700    0.000000D+00
     3467.9700    0.000000D+00
     3469.9700    0.000000D+00
     3471.9700    0.000000D+00
     3473.9700    0.000000D+00
     3475.9700    0.000000D+00
     3477.9700    0.000000D+00
     3479.9700    0.000000D+00
     3481.9700    0.000000D+00
     3483.9700    0.000000D+00
     3485.9700    0.000000D+00
     3487.9700    0.000000D+00
     3489.9700    0.000000D+00
     3491.9700    0.000000D+00
     3493.9700    0.000000D+00
     3495.9700    0.000000D+00
     3497.9700    0.000000D+00
     3499.9700    0.000000D+00
     3501.9700    0.000000D+00
     3503.9700    0.000000D+00
     3505.9700    0.000000D+00
     3507.9700    0.000000D+00
     3509.9700    0.000000D+00
     3511.9700    0.000000D+00
     3513.9700    0.000000D+00
     3515.9700    0.000000D+00
     3517.9700    0.000000D+00
     3519.9700    0.000000D+00
     3521.9700    0.000000D+00
     3523.9700    0.000000D+00
     3525.9700    0.000000D+00
     3527.9700    0.000000D+00
     3529.9700    0.000000D+00
     3531.9700    0.000000D+00
     3533.9700    0.000000D+00
     3535.9700    0.000000D+00
     3537.9700    0.000000D+00
     3539.9700    0.000000D+00
     3541.9700    0.000000D+00
     3543.9700    0.000000D+00
     3545.9700    0.000000D+00
     3547.9700    0.000000D+00
     3549.9700    0.000000D+00
     3551.9700    0.000000D+00
     3553.9700    0.000000D+00
     3555.9700    0.000000D+00
     3557.9700    0.000000D+00
     3559.9700    0.000000D+00
     3561.9700    0.000000D+00
     3563.9700    0.000000D+00
     3565.9700    0.000000D+00
     3567.9700    0.000000D+00
     3569.9700    0.000000D+00
     3571.9700    0.000000D+00
     3573.9700    0.000000D+00
     3575.9700    0.000000D+00
     3577.9700    0.000000D+00
     3579.9700    0.000000D+00
     3581.9700    0.000000D+00
     3583.9700    0.000000D+00
     3585.9700    0.000000D+00
     3587.9700    0.000000D+00
     3589.9700    0.000000D+00
     3591.9700    0.000000D+00
     3593.9700    0.000000D+00
     3595.9700    0.000000D+00
     3597.9700    0.000000D+00
     3599.9700    0.000000D+00
     3601.9700    0.000000D+00
     3603.9700    0.000000D+00
     3605.9700    0.000000D+00
     3607.9700    0.000000D+00
     3609.9700    0.000000D+00
     3611.9700    0.000000D+00
     3613.9700    0.000000D+00
     3615.9700    0.000000D+00
     3617.9700    0.000000D+00
     3619.9700    0.000000D+00
     3621.9700    0.000000D+00
     3623.9700    0.000000D+00
     3625.9700    0.000000D+00
     3627.9700    0.000000D+00
     3629.9700    0.000000D+00
     3631.9700    0.000000D+00
     3633.9700    0.000000D+00
     3635.9700    0.000000D+00
     3637.9700    0.000000D+00
     3639.9700    0.000000D+00
     3641.9700    0.000000D+00
     3643.9700    0.000000D+00
     3645.9700    0.000000D+00
     3647.9700    0.000000D+00
     3649.9700    0.000000D+00
     3651.9700    0.000000D+00
     3653.9700    0.000000D+00
     3655.9700    0.000000D+00
     3657.9700    0.000000D+00
     3659.9700    0.000000D+00
     3661.9700    0.000000D+00
     3663.9700    0.000000D+00
     3665.9700    0.000000D+00
     3667.9700    0.000000D+00
     3669.9700    0.000000D+00
     3671.9700    0.000000D+00
     3673.9700    0.000000D+00
     3675.9700    0.000000D+00
     3677.9700    0.000000D+00
     3679.9700    0.000000D+00
     3681.9700    0.000000D+00
     3683.9700    0.000000D+00
     3685.9700    0.000000D+00
     3687.9700    0.000000D+00
     3689.9700    0.000000D+00
     3691.9700    0.000000D+00
     3693.9700    0.000000D+00
     3695.9700    0.000000D+00
     3697.9700    0.000000D+00
     3699.9700    0.000000D+00
     3701.9700    0.000000D+00
     3703.9700    0.000000D+00
     3705.9700    0.000000D+00
     3707.9700    0.000000D+00
     3709.9700    0.000000D+00
     3711.9700    0.000000D+00
     3713.9700    0.000000D+00
     3715.9700    0.000000D+00
     3717.9700    0.000000D+00
     3719.9700    0.000000D+00
     3721.9700    0.000000D+00
     3723.9700    0.000000D+00
     3725.9700    0.000000D+00
     3727.9700    0.000000D+00
     3729.9700    0.000000D+00
     3731.9700    0.000000D+00
     3733.9700    0.000000D+00
     3735.9700    0.000000D+00
     3737.9700    0.000000D+00
     3739.9700    0.000000D+00
     3741.9700    0.000000D+00
     3743.9700    0.000000D+00
     3745.9700    0.000000D+00
     3747.9700    0.000000D+00
     3749.9700    0.000000D+00
     3751.9700    0.000000D+00
     3753.9700    0.000000D+00
     3755.9700    0.000000D+00
     3757.9700    0.000000D+00
     3759.9700    0.000000D+00
     3761.9700    0.000000D+00
     3763.9700    0.000000D+00
     3765.9700    0.000000D+00
     3767.9700    0.000000D+00
     3769.9700    0.000000D+00
     3771.9700    0.000000D+00
     3773.9700    0.000000D+00
     3775.9700    0.000000D+00
     3777.9700    0.000000D+00
     3779.9700    0.000000D+00
     3781.9700    0.000000D+00
     3783.9700    0.000000D+00
     3785.9700    0.000000D+00
     3787.9700    0.000000D+00
     3789.9700    0.000000D+00
     3791.9700    0.000000D+00
     3793.9700    0.000000D+00
     3795.9700    0.000000D+00
     3797.9700    0.000000D+00
     3799.9700    0.000000D+00
     3801.9700    0.000000D+00
     3803.9700    0.000000D+00
     3805.9700    0.000000D+00
     3807.9700    0.000000D+00
     3809.9700    0.000000D+00
     3811.9700    0.000000D+00
     3813.9700    0.000000D+00
     3815.9700    0.000000D+00
     3817.9700    0.000000D+00
     3819.9700    0.000000D+00
     3821.9700    0.000000D+00
     3823.9700    0.000000D+00
     3825.9700    0.000000D+00
     3827.9700    0.000000D+00
     3829.9700    0.000000D+00
     3831.9700    0.000000D+00
     3833.9700    0.000000D+00
     3835.9700    0.000000D+00
     3837.9700    0.000000D+00
     3839.9700    0.000000D+00
     3841.9700    0.000000D+00
     3843.9700    0.000000D+00
     3845.9700    0.000000D+00
     3847.9700    0.000000D+00
     3849.9700    0.000000D+00
     3851.9700    0.000000D+00
     3853.9700    0.000000D+00
     3855.9700    0.000000D+00
     3857.9700    0.000000D+00
     3859.9700    0.000000D+00
     3861.9700    0.000000D+00
     3863.9700    0.000000D+00
     3865.9700    0.000000D+00
     3867.9700    0.000000D+00
     3869.9700    0.000000D+00
     3871.9700    0.000000D+00
     3873.9700    0.000000D+00
     3875.9700    0.000000D+00
     3877.9700    0.000000D+00
     3879.9700    0.000000D+00
     3881.9700    0.000000D+00
     3883.9700    0.000000D+00
     3885.9700    0.000000D+00
     3887.9700    0.000000D+00
     3889.9700    0.000000D+00
     3891.9700    0.000000D+00
     3893.9700    0.000000D+00
     3895.9700    0.000000D+00
     3897.9700    0.000000D+00
     3899.9700    0.000000D+00
     3901.9700    0.000000D+00
     3903.9700    0.000000D+00
     3905.9700    0.000000D+00
     3907.9700    0.000000D+00
     3909.9700    0.000000D+00
     3911.9700    0.000000D+00
     3913.9700    0.000000D+00
     3915.9700    0.000000D+00
     3917.9700    0.000000D+00
     3919.9700    0.000000D+00
     3921.9700    0.000000D+00
     3923.9700    0.000000D+00
     3925.9700    0.000000D+00
     3927.9700    0.000000D+00
     3929.9700    0.000000D+00
     3931.9700    0.000000D+00
     3933.9700    0.000000D+00
     3935.9700    0.000000D+00
     3937.9700    0.000000D+00
     3939.9700    0.000000D+00
     3941.9700    0.000000D+00
     3943.9700    0.000000D+00
     3945.9700    0.000000D+00
     3947.9700    0.000000D+00
     3949.9700    0.000000D+00
     3951.9700    0.000000D+00
     3953.9700    0.000000D+00
     3955.9700    0.000000D+00
     3957.9700    0.000000D+00
     3959.9700    0.000000D+00
     3961.9700    0.000000D+00
     3963.9700    0.000000D+00
     3965.9700    0.000000D+00
     3967.9700    0.000000D+00
     3969.9700    0.000000D+00
     3971.9700    0.000000D+00
     3973.9700    0.000000D+00
     3975.9700    0.000000D+00
     3977.9700    0.000000D+00
     3979.9700    0.000000D+00
     3981.9700    0.000000D+00
     3983.9700    0.000000D+00
     3985.9700    0.000000D+00
     3987.9700    0.000000D+00
     3989.9700    0.000000D+00
     3991.9700    0.000000D+00
     3993.9700    0.000000D+00
     3995.9700    0.000000D+00
     3997.9700    0.000000D+00
     3999.9700    0.000000D+00
     4001.9700    0.000000D+00
     4003.9700    0.000000D+00
     4005.9700    0.000000D+00
     4007.9700    0.000000D+00
     4009.9700    0.000000D+00
     4011.9700    0.000000D+00
     4013.9700    0.000000D+00
     4015.9700    0.000000D+00
     4017.9700    0.000000D+00
     4019.9700    0.000000D+00
     4021.9700    0.000000D+00
     4023.9700    0.000000D+00
     4025.9700    0.000000D+00
     4027.9700    0.000000D+00
     4029.9700    0.000000D+00
     4031.9700    0.000000D+00
     4033.9700    0.000000D+00
     4035.9700    0.000000D+00
     4037.9700    0.000000D+00
     4039.9700    0.000000D+00
     4041.9700    0.000000D+00
     4043.9700    0.000000D+00
     4045.9700    0.000000D+00
     4047.9700    0.000000D+00
     4049.9700    0.000000D+00
     4051.9700    0.000000D+00
     4053.9700    0.000000D+00
     4055.9700    0.000000D+00
     4057.9700    0.000000D+00
     4059.9700    0.000000D+00
     4061.9700    0.000000D+00
     4063.9700    0.000000D+00
     4065.9700    0.000000D+00
     4067.9700    0.000000D+00
     4069.9700    0.000000D+00
     4071.9700    0.000000D+00
     4073.9700    0.000000D+00
     4075.9700    0.000000D+00
     4077.9700    0.000000D+00
     4079.9700    0.000000D+00
     4081.9700    0.000000D+00
     4083.9700    0.000000D+00
     4085.9700    0.000000D+00
     4087.9700    0.000000D+00
     4089.9700    0.000000D+00
     4091.9700    0.000000D+00
     4093.9700    0.000000D+00
     4095.9700    0.000000D+00
     4097.9700    0.000000D+00
     4099.9700    0.000000D+00
     4101.9700    0.000000D+00
     4103.9700    0.000000D+00
     4105.9700    0.000000D+00
     4107.9700    0.000000D+00
     4109.9700    0.000000D+00
     4111.9700    0.000000D+00
     4113.9700    0.000000D+00
     4115.9700    0.000000D+00
     4117.9700    0.000000D+00
     4119.9700    0.000000D+00
     4121.9700    0.000000D+00
     4123.9700    0.000000D+00
     4125.9700    0.000000D+00
     4127.9700    0.000000D+00
     4129.9700    0.000000D+00
     4131.9700    0.000000D+00
     4133.9700    0.000000D+00
     4135.9700    0.000000D+00
     4137.9700    0.000000D+00
     4139.9700    0.000000D+00
     4141.9700    0.000000D+00
     4143.9700    0.000000D+00
     4145.9700    0.000000D+00
     4147.9700    0.000000D+00
     4149.9700    0.000000D+00
     4151.9700    0.000000D+00
     4153.9700    0.000000D+00
     4155.9700    0.000000D+00
     4157.9700    0.000000D+00
     4159.9700    0.000000D+00
     4161.9700    0.000000D+00
     4163.9700    0.000000D+00
     4165.9700    0.000000D+00
     4167.9700    0.000000D+00
     4169.9700    0.000000D+00
     4171.9700    0.000000D+00
     4173.9700    0.000000D+00
     4175.9700    0.000000D+00
     4177.9700    0.000000D+00
     4179.9700    0.000000D+00
     4181.9700    0.000000D+00
     4183.9700    0.000000D+00
     4185.9700    0.000000D+00
     4187.9700    0.000000D+00
     4189.9700    0.000000D+00
     4191.9700    0.000000D+00
     4193.9700    0.000000D+00
     4195.9700    0.000000D+00
     4197.9700    0.000000D+00
     4199.9700    0.000000D+00
     4201.9700    0.000000D+00
     4203.9700    0.000000D+00
     4205.9700    0.000000D+00
     4207.9700    0.000000D+00
     4209.9700    0.000000D+00
     4211.9700    0.000000D+00
     4213.9700    0.000000D+00
     4215.9700    0.000000D+00
     4217.9700    0.000000D+00
     4219.9700    0.000000D+00
     4221.9700    0.000000D+00
     4223.9700    0.000000D+00
     4225.9700    0.000000D+00
     4227.9700    0.000000D+00
     4229.9700    0.000000D+00
     4231.9700    0.000000D+00
     4233.9700    0.000000D+00
     4235.9700    0.000000D+00
     4237.9700    0.000000D+00
     4239.9700    0.000000D+00
     4241.9700    0.000000D+00
     4243.9700    0.000000D+00
     4245.9700    0.000000D+00
     4247.9700    0.000000D+00
     4249.9700    0.000000D+00
     4251.9700    0.000000D+00
     4253.9700    0.000000D+00
     4255.9700    0.000000D+00
     4257.9700    0.000000D+00
     4259.9700    0.000000D+00
     4261.9700    0.000000D+00
     4263.9700    0.000000D+00
     4265.9700    0.000000D+00
     4267.9700    0.000000D+00
     4269.9700    0.000000D+00
     4271.9700    0.000000D+00
     4273.9700    0.000000D+00
     4275.9700    0.000000D+00
     4277.9700    0.000000D+00
     4279.9700    0.000000D+00
     4281.9700    0.000000D+00
     4283.9700    0.000000D+00
     4285.9700    0.000000D+00
     4287.9700    0.000000D+00
     4289.9700    0.000000D+00
     4291.9700    0.000000D+00
     4293.9700    0.000000D+00
     4295.9700    0.000000D+00
     4297.9700    0.000000D+00
     4299.9700    0.000000D+00
     4301.9700    0.000000D+00
     4303.9700    0.000000D+00
     4305.9700    0.000000D+00
     4307.9700    0.000000D+00
     4309.9700    0.000000D+00
     4311.9700    0.000000D+00
     4313.9700    0.000000D+00
     4315.9700    0.000000D+00
     4317.9700    0.000000D+00
     4319.9700    0.000000D+00
     4321.9700    0.000000D+00
     4323.9700    0.000000D+00
     4325.9700    0.000000D+00
     4327.9700    0.000000D+00
     4329.9700    0.000000D+00
     4331.9700    0.000000D+00
     4333.9700    0.000000D+00
     4335.9700    0.000000D+00
     4337.9700    0.000000D+00
     4339.9700    0.000000D+00
     4341.9700    0.000000D+00
     4343.9700    0.000000D+00
     4345.9700    0.000000D+00
     4347.9700    0.000000D+00
     4349.9700    0.000000D+00
     4351.9700    0.000000D+00
     4353.9700    0.000000D+00
     4355.9700    0.000000D+00
     4357.9700    0.000000D+00
     4359.9700    0.000000D+00
     4361.9700    0.000000D+00
     4363.9700    0.000000D+00
     4365.9700    0.000000D+00
     4367.9700    0.000000D+00
     4369.9700    0.000000D+00
     4371.9700    0.000000D+00
     4373.9700    0.000000D+00
     4375.9700    0.000000D+00
     4377.9700    0.000000D+00
     4379.9700    0.000000D+00
     4381.9700    0.000000D+00
     4383.9700    0.000000D+00
     4385.9700    0.000000D+00
     4387.9700    0.000000D+00
     4389.9700    0.000000D+00
     4391.9700    0.000000D+00
     4393.9700    0.000000D+00
     4395.9700    0.000000D+00
     4397.9700    0.000000D+00
     4399.9700    0.000000D+00
     4401.9700    0.000000D+00
     4403.9700    0.000000D+00
     4405.9700    0.000000D+00
     4407.9700    0.000000D+00
     4409.9700    0.000000D+00
     4411.9700    0.000000D+00
     4413.9700    0.000000D+00
     4415.9700    0.000000D+00
     4417.9700    0.000000D+00
     4419.9700    0.000000D+00
     4421.9700    0.000000D+00
     4423.9700    0.000000D+00
     4425.9700    0.000000D+00
     4427.9700    0.000000D+00
     4429.9700    0.000000D+00
     4431.9700    0.000000D+00
     4433.9700    0.000000D+00
     4435.9700    0.000000D+00
     4437.9700    0.000000D+00
     4439.9700    0.000000D+00
     4441.9700    0.000000D+00
     4443.9700    0.000000D+00
     4445.9700    0.000000D+00
     4447.9700    0.000000D+00
     4449.9700    0.000000D+00
     4451.9700    0.000000D+00
     4453.9700    0.000000D+00
     4455.9700    0.000000D+00
     4457.9700    0.000000D+00
     4459.9700    0.000000D+00
     4461.9700    0.000000D+00
     4463.9700    0.000000D+00
     4465.9700    0.000000D+00
     4467.9700    0.000000D+00
     4469.9700    0.000000D+00
     4471.9700    0.000000D+00
     4473.9700    0.000000D+00
     4475.9700    0.000000D+00
     4477.9700    0.000000D+00
     4479.9700    0.000000D+00
     4481.9700    0.000000D+00
     4483.9700    0.000000D+00
     4485.9700    0.000000D+00
     4487.9700    0.000000D+00
     4489.9700    0.000000D+00
     4491.9700    0.000000D+00
     4493.9700    0.000000D+00
     4495.9700    0.000000D+00
     4497.9700    0.000000D+00
     4499.9700    0.000000D+00
     4501.9700    0.000000D+00
     4503.9700    0.000000D+00
     4505.9700    0.000000D+00
     4507.9700    0.000000D+00
     4509.9700    0.000000D+00
     4511.9700    0.000000D+00
     4513.9700    0.000000D+00
     4515.9700    0.000000D+00
     4517.9700    0.000000D+00
     4519.9700    0.000000D+00
     4521.9700    0.000000D+00
     4523.9700    0.000000D+00
     4525.9700    0.000000D+00
     4527.9700    0.000000D+00
     4529.9700    0.000000D+00
     4531.9700    0.000000D+00
     4533.9700    0.000000D+00
     4535.9700    0.000000D+00
     4537.9700    0.000000D+00
     4539.9700    0.000000D+00
     4541.9700    0.000000D+00
     4543.9700    0.000000D+00
     4545.9700    0.000000D+00
     4547.9700    0.000000D+00
     4549.9700    0.000000D+00
     4551.9700    0.000000D+00
     4553.9700    0.000000D+00
     4555.9700    0.000000D+00
     4557.9700    0.000000D+00
     4559.9700    0.000000D+00
     4561.9700    0.000000D+00
     4563.9700    0.000000D+00
     4565.9700    0.000000D+00
     4567.9700    0.000000D+00
     4569.9700    0.000000D+00
     4571.9700    0.000000D+00
     4573.9700    0.000000D+00
     4575.9700    0.000000D+00
     4577.9700    0.000000D+00
     4579.9700    0.000000D+00
     4581.9700    0.000000D+00
     4583.9700    0.000000D+00
     4585.9700    0.000000D+00
     4587.9700    0.000000D+00
     4589.9700    0.000000D+00
     4591.9700    0.000000D+00
     4593.9700    0.000000D+00
     4595.9700    0.000000D+00
     4597.9700    0.000000D+00
     4599.9700    0.000000D+00
     4601.9700    0.000000D+00
     4603.9700    0.000000D+00
     4605.9700    0.000000D+00
     4607.9700    0.000000D+00
     4609.9700    0.000000D+00
     4611.9700    0.000000D+00
     4613.9700    0.000000D+00
     4615.9700    0.000000D+00
     4617.9700    0.000000D+00
     4619.9700    0.000000D+00
     4621.9700    0.000000D+00
     4623.9700    0.000000D+00
     4625.9700    0.000000D+00
     4627.9700    0.000000D+00
     4629.9700    0.000000D+00
     4631.9700    0.000000D+00
     4633.9700    0.000000D+00
     4635.9700    0.000000D+00
     4637.9700    0.000000D+00
     4639.9700    0.000000D+00
     4641.9700    0.000000D+00
     4643.9700    0.000000D+00
     4645.9700    0.000000D+00
     4647.9700    0.000000D+00
     4649.9700    0.000000D+00
     4651.9700    0.000000D+00
     4653.9700    0.000000D+00
     4655.9700    0.000000D+00
     4657.9700    0.000000D+00
     4659.9700    0.000000D+00
     4661.9700    0.000000D+00
     4663.9700    0.000000D+00
     4665.9700    0.000000D+00
     4667.9700    0.000000D+00
     4669.9700    0.000000D+00
     4671.9700    0.000000D+00
     4673.9700    0.000000D+00
     4675.9700    0.000000D+00
     4677.9700    0.000000D+00
     4679.9700    0.000000D+00
     4681.9700    0.000000D+00
     4683.9700    0.000000D+00
     4685.9700    0.000000D+00
     4687.9700    0.000000D+00
     4689.9700    0.000000D+00
     4691.9700    0.000000D+00
     4693.9700    0.000000D+00
     4695.9700    0.000000D+00
     4697.9700    0.000000D+00
     4699.9700    0.000000D+00
     4701.9700    0.000000D+00
     4703.9700    0.000000D+00
     4705.9700    0.000000D+00
     4707.9700    0.000000D+00
     4709.9700    0.000000D+00
     4711.9700    0.000000D+00
     4713.9700    0.000000D+00
     4715.9700    0.000000D+00
     4717.9700    0.000000D+00
     4719.9700    0.000000D+00
     4721.9700    0.000000D+00
     4723.9700    0.000000D+00
     4725.9700    0.000000D+00
     4727.9700    0.000000D+00
     4729.9700    0.000000D+00
     4731.9700    0.000000D+00
     4733.9700    0.000000D+00
     4735.9700    0.000000D+00
     4737.9700    0.000000D+00
     4739.9700    0.000000D+00
     4741.9700    0.000000D+00
     4743.9700    0.000000D+00
     4745.9700    0.000000D+00
     4747.9700    0.000000D+00
     4749.9700    0.000000D+00
     4751.9700    0.000000D+00
     4753.9700    0.000000D+00
     4755.9700    0.000000D+00
     4757.9700    0.000000D+00
     4759.9700    0.000000D+00
     4761.9700    0.000000D+00
     4763.9700    0.000000D+00
     4765.9700    0.000000D+00
     4767.9700    0.000000D+00
     4769.9700    0.000000D+00
     4771.9700    0.000000D+00
     4773.9700    0.000000D+00
     4775.9700    0.000000D+00
     4777.9700    0.000000D+00
     4779.9700    0.000000D+00
     4781.9700    0.000000D+00
     4783.9700    0.000000D+00
     4785.9700    0.000000D+00
     4787.9700    0.000000D+00
     4789.9700    0.000000D+00
     4791.9700    0.000000D+00
     4793.9700    0.000000D+00
     4795.9700    0.000000D+00
     4797.9700    0.000000D+00
     4799.9700    0.000000D+00
     4801.9700    0.000000D+00
     4803.9700    0.000000D+00
     4805.9700    0.000000D+00
     4807.9700    0.000000D+00
     4809.9700    0.000000D+00
     4811.9700    0.000000D+00
     4813.9700    0.000000D+00
     4815.9700    0.000000D+00
     4817.9700    0.000000D+00
     4819.9700    0.000000D+00
     4821.9700    0.000000D+00
     4823.9700    0.000000D+00
     4825.9700    0.000000D+00
     4827.9700    0.000000D+00
     4829.9700    0.000000D+00
     4831.9700    0.000000D+00
     4833.9700    0.000000D+00
     4835.9700    0.000000D+00
     4837.9700    0.000000D+00
     4839.9700    0.000000D+00
     4841.9700    0.000000D+00
     4843.9700    0.000000D+00
     4845.9700    0.000000D+00
     4847.9700    0.000000D+00
     4849.9700    0.000000D+00
     4851.9700    0.000000D+00
     4853.9700    0.000000D+00
     4855.9700    0.000000D+00
     4857.9700    0.000000D+00
     4859.9700    0.000000D+00
     4861.9700    0.000000D+00
     4863.9700    0.000000D+00
     4865.9700    0.000000D+00
     4867.9700    0.000000D+00
     4869.9700    0.000000D+00
     4871.9700    0.000000D+00
     4873.9700    0.000000D+00
     4875.9700    0.000000D+00
     4877.9700    0.000000D+00
     4879.9700    0.000000D+00
     4881.9700    0.000000D+00
     4883.9700    0.000000D+00
     4885.9700    0.000000D+00
     4887.9700    0.000000D+00
     4889.9700    0.000000D+00
     4891.9700    0.000000D+00
     4893.9700    0.000000D+00
     4895.9700    0.000000D+00
     4897.9700    0.000000D+00
     4899.9700    0.000000D+00
     4901.9700    0.000000D+00
     4903.9700    0.000000D+00
     4905.9700    0.000000D+00
     4907.9700    0.000000D+00
     4909.9700    0.000000D+00
     4911.9700    0.000000D+00
     4913.9700    0.000000D+00
     4915.9700    0.000000D+00
     4917.9700    0.000000D+00
     4919.9700    0.000000D+00
     4921.9700    0.000000D+00
     4923.9700    0.000000D+00
     4925.9700    0.000000D+00
     4927.9700    0.000000D+00
     4929.9700    0.000000D+00
     4931.9700    0.000000D+00
     4933.9700    0.000000D+00
     4935.9700    0.000000D+00
     4937.9700    0.000000D+00
     4939.9700    0.000000D+00
     4941.9700    0.000000D+00
     4943.9700    0.000000D+00
     4945.9700    0.000000D+00
     4947.9700    0.000000D+00
     4949.9700    0.000000D+00
     4951.9700    0.000000D+00
     4953.9700    0.000000D+00
     4955.9700    0.000000D+00
     4957.9700    0.000000D+00
     4959.9700    0.000000D+00
     4961.9700    0.000000D+00
     4963.9700    0.000000D+00
     4965.9700    0.000000D+00
     4967.9700    0.000000D+00
     4969.9700    0.000000D+00
     4971.9700    0.000000D+00
     4973.9700    0.000000D+00
     4975.9700    0.000000D+00
     4977.9700    0.000000D+00
     4979.9700    0.000000D+00
     4981.9700    0.000000D+00
     4983.9700    0.000000D+00
     4985.9700    0.000000D+00
     4987.9700    0.000000D+00
     4989.9700    0.000000D+00
     4991.9700    0.000000D+00
     4993.9700    0.000000D+00
     4995.9700    0.000000D+00
     4997.9700    0.000000D+00
     4999.9700    0.000000D+00
     5001.9700    0.000000D+00
     5003.9700    0.000000D+00
     5005.9700    0.000000D+00
     5007.9700    0.000000D+00
     5009.9700    0.000000D+00
     5011.9700    0.000000D+00
     5013.9700    0.000000D+00
     5015.9700    0.000000D+00
     5017.9700    0.000000D+00
     5019.9700    0.000000D+00
     5021.9700    0.000000D+00
     5023.9700    0.000000D+00
     5025.9700    0.000000D+00
     5027.9700    0.000000D+00
     5029.9700    0.000000D+00
     5031.9700    0.000000D+00
     5033.9700    0.000000D+00
     5035.9700    0.000000D+00
     5037.9700    0.000000D+00
     5039.9700    0.000000D+00
     5041.9700    0.000000D+00
     5043.9700    0.000000D+00
     5045.9700    0.000000D+00
     5047.9700    0.000000D+00
     5049.9700    0.000000D+00
     5051.9700    0.000000D+00
     5053.9700    0.000000D+00
     5055.9700    0.000000D+00
     5057.9700    0.000000D+00
     5059.9700    0.000000D+00
     5061.9700    0.000000D+00
     5063.9700    0.000000D+00
     5065.9700    0.000000D+00
     5067.9700    0.000000D+00
     5069.9700    0.000000D+00
     5071.9700    0.000000D+00
     5073.9700    0.000000D+00
     5075.9700    0.000000D+00
     5077.9700    0.000000D+00
     5079.9700    0.000000D+00
     5081.9700    0.000000D+00
     5083.9700    0.000000D+00
     5085.9700    0.000000D+00
     5087.9700    0.000000D+00
     5089.9700    0.000000D+00
     5091.9700    0.000000D+00
     5093.9700    0.000000D+00
     5095.9700    0.000000D+00
     5097.9700    0.000000D+00
     5099.9700    0.000000D+00
     5101.9700    0.000000D+00
     5103.9700    0.000000D+00
     5105.9700    0.000000D+00
     5107.9700    0.000000D+00
     5109.9700    0.000000D+00
     5111.9700    0.000000D+00
     5113.9700    0.000000D+00
     5115.9700    0.000000D+00
     5117.9700    0.000000D+00
     5119.9700    0.000000D+00
     5121.9700    0.000000D+00
     5123.9700    0.000000D+00
     5125.9700    0.000000D+00
     5127.9700    0.000000D+00
     5129.9700    0.000000D+00
     5131.9700    0.000000D+00
     5133.9700    0.000000D+00
     5135.9700    0.000000D+00
     5137.9700    0.000000D+00
     5139.9700    0.000000D+00
     5141.9700    0.000000D+00
     5143.9700    0.000000D+00
     5145.9700    0.000000D+00
     5147.9700    0.000000D+00
     5149.9700    0.000000D+00
     5151.9700    0.000000D+00
     5153.9700    0.000000D+00
     5155.9700    0.000000D+00
     5157.9700    0.000000D+00
     5159.9700    0.000000D+00
     5161.9700    0.000000D+00
     5163.9700    0.000000D+00
     5165.9700    0.000000D+00
     5167.9700    0.000000D+00
     5169.9700    0.000000D+00
     5171.9700    0.000000D+00
     5173.9700    0.000000D+00
     5175.9700    0.000000D+00
     5177.9700    0.000000D+00
     5179.9700    0.000000D+00
     5181.9700    0.000000D+00
     5183.9700    0.000000D+00
     5185.9700    0.000000D+00
     5187.9700    0.000000D+00
     5189.9700    0.000000D+00
     5191.9700    0.000000D+00
     5193.9700    0.000000D+00
     5195.9700    0.000000D+00
     5197.9700    0.000000D+00
     5199.9700    0.000000D+00
     5201.9700    0.000000D+00
     5203.9700    0.000000D+00
     5205.9700    0.000000D+00
     5207.9700    0.000000D+00
     5209.9700    0.000000D+00
     5211.9700    0.000000D+00
     5213.9700    0.000000D+00
     5215.9700    0.000000D+00
     5217.9700    0.000000D+00
     5219.9700    0.000000D+00
     5221.9700    0.000000D+00
     5223.9700    0.000000D+00
     5225.9700    0.000000D+00
     5227.9700    0.000000D+00
     5229.9700    0.000000D+00
     5231.9700    0.000000D+00
     5233.9700    0.000000D+00
     5235.9700    0.000000D+00
     5237.9700    0.000000D+00
     5239.9700    0.000000D+00
     5241.9700    0.000000D+00
     5243.9700    0.000000D+00
     5245.9700    0.000000D+00
     5247.9700    0.000000D+00
     5249.9700    0.000000D+00
     5251.9700    0.000000D+00
     5253.9700    0.000000D+00
     5255.9700    0.000000D+00
     5257.9700    0.000000D+00
     5259.9700    0.000000D+00
     5261.9700    0.000000D+00
     5263.9700    0.000000D+00
     5265.9700    0.000000D+00
     5267.9700    0.000000D+00
     5269.9700    0.000000D+00
     5271.9700    0.000000D+00
     5273.9700    0.000000D+00
     5275.9700    0.000000D+00
     5277.9700    0.000000D+00
     5279.9700    0.000000D+00
     5281.9700    0.000000D+00
     5283.9700    0.000000D+00
     5285.9700    0.000000D+00
     5287.9700    0.000000D+00
     5289.9700    0.000000D+00
     5291.9700    0.000000D+00
     5293.9700    0.000000D+00
     5295.9700    0.000000D+00
     5297.9700    0.000000D+00
     5299.9700    0.000000D+00
     5301.9700    0.000000D+00
     5303.9700    0.000000D+00
     5305.9700    0.000000D+00
     5307.9700    0.000000D+00
     5309.9700    0.000000D+00
     5311.9700    0.000000D+00
     5313.9700    0.000000D+00
     5315.9700    0.000000D+00
     5317.9700    0.000000D+00
     5319.9700    0.000000D+00
     5321.9700    0.000000D+00
     5323.9700    0.000000D+00
     5325.9700    0.000000D+00
     5327.9700    0.000000D+00
     5329.9700    0.000000D+00
     5331.9700    0.000000D+00
     5333.9700    0.000000D+00
     5335.9700    0.000000D+00
     5337.9700    0.000000D+00
     5339.9700    0.000000D+00
     5341.9700    0.000000D+00
     5343.9700    0.000000D+00
     5345.9700    0.000000D+00
     5347.9700    0.000000D+00
     5349.9700    0.000000D+00
     5351.9700    0.000000D+00
     5353.9700    0.000000D+00
     5355.9700    0.000000D+00
     5357.9700    0.000000D+00
     5359.9700    0.000000D+00
     5361.9700    0.000000D+00
     5363.9700    0.000000D+00
     5365.9700    0.000000D+00
     5367.9700    0.000000D+00
     5369.9700    0.000000D+00
     5371.9700    0.000000D+00
     5373.9700    0.000000D+00
     5375.9700    0.000000D+00
     5377.9700    0.000000D+00
     5379.9700    0.000000D+00
     5381.9700    0.000000D+00
     5383.9700    0.000000D+00
     5385.9700    0.000000D+00
     5387.9700    0.000000D+00
     5389.9700    0.000000D+00
     5391.9700    0.000000D+00
     5393.9700    0.000000D+00
     5395.9700    0.000000D+00
     5397.9700    0.000000D+00
     5399.9700    0.000000D+00
     5401.9700    0.000000D+00
     5403.9700    0.000000D+00
     5405.9700    0.000000D+00
     5407.9700    0.000000D+00
     5409.9700    0.000000D+00
     5411.9700    0.000000D+00
     5413.9700    0.000000D+00
     5415.9700    0.000000D+00
     5417.9700    0.000000D+00
     5419.9700    0.000000D+00
     5421.9700    0.000000D+00
     5423.9700    0.000000D+00
     5425.9700    0.000000D+00
     5427.9700    0.000000D+00
     5429.9700    0.000000D+00
     5431.9700    0.000000D+00
     5433.9700    0.000000D+00
     5435.9700    0.000000D+00
     5437.9700    0.000000D+00
     5439.9700    0.000000D+00
     5441.9700    0.000000D+00
     5443.9700    0.000000D+00
     5445.9700    0.000000D+00
     5447.9700    0.000000D+00
     5449.9700    0.000000D+00
     5451.9700    0.000000D+00
     5453.9700    0.000000D+00
     5455.9700    0.000000D+00
     5457.9700    0.000000D+00
     5459.9700    0.000000D+00
     5461.9700    0.000000D+00
     5463.9700    0.000000D+00
     5465.9700    0.000000D+00
     5467.9700    0.000000D+00
     5469.9700    0.000000D+00
     5471.9700    0.000000D+00
     5473.9700    0.000000D+00
     5475.9700    0.000000D+00
     5477.9700    0.000000D+00
     5479.9700    0.000000D+00
     5481.9700    0.000000D+00
     5483.9700    0.000000D+00
     5485.9700    0.000000D+00
     5487.9700    0.000000D+00
     5489.9700    0.000000D+00
     5491.9700    0.000000D+00
     5493.9700    0.000000D+00
     5495.9700    0.000000D+00
     5497.9700    0.000000D+00
     5499.9700    0.000000D+00
     5501.9700    0.000000D+00
     5503.9700    0.000000D+00
     5505.9700    0.000000D+00
     5507.9700    0.000000D+00
     5509.9700    0.000000D+00
     5511.9700    0.000000D+00
     5513.9700    0.000000D+00
     5515.9700    0.000000D+00
     5517.9700    0.000000D+00
     5519.9700    0.000000D+00
     5521.9700    0.000000D+00
     5523.9700    0.000000D+00
     5525.9700    0.000000D+00
     5527.9700    0.000000D+00
     5529.9700    0.000000D+00
     5531.9700    0.000000D+00
     5533.9700    0.000000D+00
     5535.9700    0.000000D+00
     5537.9700    0.000000D+00
     5539.9700    0.000000D+00
     5541.9700    0.000000D+00
     5543.9700    0.000000D+00
     5545.9700    0.000000D+00
     5547.9700    0.000000D+00
     5549.9700    0.000000D+00
     5551.9700    0.000000D+00
     5553.9700    0.000000D+00
     5555.9700    0.000000D+00
     5557.9700    0.000000D+00
     5559.9700    0.000000D+00
     5561.9700    0.000000D+00
     5563.9700    0.000000D+00
     5565.9700    0.000000D+00
     5567.9700    0.000000D+00
     5569.9700    0.000000D+00
     5571.9700    0.000000D+00
     5573.9700    0.000000D+00
     5575.9700    0.000000D+00
     5577.9700    0.000000D+00
     5579.9700    0.000000D+00
     5581.9700    0.000000D+00
     5583.9700    0.000000D+00
     5585.9700    0.000000D+00
     5587.9700    0.000000D+00
[...]
    51279.9700    0.170657D-01
    51281.9700    0.150812D-02
    51283.9700    0.392736D-03
    51285.9700    0.680988D-02
    51287.9700    0.437967D-03
    51289.9700    0.227594D-02
    51291.9700    0.817772D-02
    51293.9700    0.133622D-02
    51295.9700    0.277313D-03
    51297.9700    0.592213D-02
    51299.9700    0.341755D-03
    51301.9700    0.559952D-02
    51303.9700    0.337900D-02
    51305.9700    0.193395D-02
    51307.9700    0.242311D-02
    51309.9700    0.489120D-02
    51311.9700    0.855797D-02
    51313.9700    0.342173D-03
    51315.9700    0.185231D-02
    51317.9700    0.173673D-02
    51319.9700    0.116435D-01
    51321.9700    0.320729D-02
    51323.9700    0.795439D-02
    51325.9700    0.269514D-03
    51327.9700    0.102710D-02
    51329.9700    0.103887D-02
    51331.9700    0.271376D-01
    51333.9700    0.144466D-02
    51335.9700    0.591028D-02
    51337.9700    0.574483D-03
    51339.9700    0.442509D-03
    51341.9700    0.977216D-03
    51343.9700    0.392136D-01
    51345.9700    0.427752D-03
    51347.9700    0.304960D-02
    51349.9700    0.737983D-03
    51351.9700    0.399687D-04
    51353.9700    0.129642D-02
    51355.9700    0.378429D-01
    51357.9700    0.111356D-03
    51359.9700    0.195827D-02
    51361.9700    0.725709D-03
    51363.9700    0.237308D-02
    51365.9700    0.126032D-02
    51367.9700    0.250707D-01
    51369.9700    0.338605D-04
    51371.9700    0.256364D-02
    51373.9700    0.297514D-03
    51375.9700    0.827156D-02
    51377.9700    0.106408D-01
    51379.9700    0.150007D-02
    51381.9700    0.961038D-04
    51383.9700    0.320422D-02
    51385.9700    0.146781D-03
    51387.9700    0.137264D-01
    51389.9700    0.259416D-03
    51391.9700    0.787455D-03
    51393.9700    0.308547D-02
    51395.9700    0.290174D-02
    51397.9700    0.395404D-03
    51399.9700    0.146343D-01
    51401.9700    0.117726D-04
    51403.9700    0.339038D-03
    51405.9700    0.657561D-02
    51407.9700    0.196161D-02
    51409.9700    0.962876D-02
    51411.9700    0.180019D-02
    51413.9700    0.252373D-02
    51415.9700    0.695805D-03
    51417.9700    0.905916D-02
    51419.9700    0.222890D-02
    51421.9700    0.442438D-02
    51423.9700    0.224197D-02
    51425.9700    0.356072D-02
    51427.9700    0.107127D-02
    51429.9700    0.861924D-02
    51431.9700    0.294792D-02
    51433.9700    0.240023D-02
    51435.9700    0.439815D-03
    51437.9700    0.418565D-02
    51439.9700    0.929987D-03
    51441.9700    0.584177D-02
    51443.9700    0.294718D-01
    51445.9700    0.564015D-03
    51447.9700    0.232223D-03
    51449.9700    0.517719D-02
    51451.9700    0.763692D-03
    51453.9700    0.470213D-02
    51455.9700    0.384375D-01
    51457.9700    0.729472D-03
    51459.9700    0.218006D-03
    51461.9700    0.588899D-02
    51463.9700    0.658009D-03
    51465.9700    0.810667D-03
    51467.9700    0.349326D-01
    51469.9700    0.127247D-02
    51471.9700    0.442058D-03
    51473.9700    0.583843D-02
    51475.9700    0.821653D-03
    51477.9700    0.297717D-02
    51479.9700    0.192217D-01
    51481.9700    0.136507D-02
    51483.9700    0.324427D-03
    51485.9700    0.579621D-02
    51487.9700    0.863258D-02
    51489.9700    0.637178D-03
    51491.9700    0.635348D-02
    51493.9700    0.166667D-02
    51495.9700    0.244189D-03
    51497.9700    0.588857D-02
    51499.9700    0.151394D-01
    51501.9700    0.318117D-03
    51503.9700    0.138712D-03
    51505.9700    0.147153D-02
    51507.9700    0.528157D-02
    51509.9700    0.477833D-02
    51511.9700    0.166349D-01
    51513.9700    0.316182D-03
    51515.9700    0.138443D-03
    51517.9700    0.958357D-03
    51519.9700    0.133437D-01
    51521.9700    0.272573D-02
    51523.9700    0.117791D-01
    51525.9700    0.665998D-03
    51527.9700    0.125120D-03
    51529.9700    0.113913D-02
    51531.9700    0.224020D-01
    51533.9700    0.106980D-02
    51535.9700    0.597157D-02
    51537.9700    0.862577D-03
    51539.9700    0.773233D-04
    51541.9700    0.179587D-02
    51543.9700    0.262017D-01
    51545.9700    0.118304D-03
    51547.9700    0.220701D-02
    51549.9700    0.662753D-03
    51551.9700    0.196184D-02
    51553.9700    0.190345D-01
    51555.9700    0.424904D-02
    51557.9700    0.545330D-04
    51559.9700    0.101631D-02
    51561.9700    0.417691D-03
    51563.9700    0.743324D-02
    51565.9700    0.104765D-01
    51567.9700    0.344873D-02
    51569.9700    0.935654D-04
    51571.9700    0.146394D-02
    51573.9700    0.225805D-03
    51575.9700    0.139777D-01
    51577.9700    0.175584D-03
    51579.9700    0.198703D-02
    51581.9700    0.301169D-03
    51583.9700    0.156625D-02
    51585.9700    0.547379D-03
    51587.9700    0.162715D-01
    51589.9700    0.118132D-03
    51591.9700    0.741516D-03
    51593.9700    0.369459D-02
    51595.9700    0.112488D-02
    51597.9700    0.119525D-01
    51599.9700    0.291628D-02
    51601.9700    0.516050D-02
    51603.9700    0.627880D-03
    51605.9700    0.111766D-03
    51607.9700    0.181978D-02
    51609.9700    0.973584D-02
    51611.9700    0.690201D-03
    51613.9700    0.947153D-02
    51615.9700    0.855855D-03
    51617.9700    0.978795D-04
    51619.9700    0.325583D-02
    51621.9700    0.521421D-02
    51623.9700    0.418119D-03
    51625.9700    0.104620D-01
    51627.9700    0.856440D-03
    51629.9700    0.104537D-03
    51631.9700    0.216572D-01
    51633.9700    0.146608D-02
    51635.9700    0.225409D-03
    51637.9700    0.800520D-02
    51639.9700    0.868857D-03
    51641.9700    0.259495D-02
    51643.9700    0.314875D-01
    51645.9700    0.997586D-03
    51647.9700    0.123684D-03
    51649.9700    0.504297D-02
    51651.9700    0.934502D-03
    51653.9700    0.269539D-02
    51655.9700    0.340913D-01
    51657.9700    0.231470D-02
    51659.9700    0.302215D-03
    51661.9700    0.357634D-02
    51663.9700    0.321903D-02
    51665.9700    0.216799D-02
    51667.9700    0.250983D-01
    51669.9700    0.335184D-02
    51671.9700    0.232316D-03
    51673.9700    0.378429D-02
    51675.9700    0.961670D-02
    51677.9700    0.136484D-02
    51679.9700    0.121657D-01
    51681.9700    0.279933D-02
    51683.9700    0.195899D-03
    51685.9700    0.375642D-02
    51687.9700    0.195068D-01
    51689.9700    0.565120D-03
    51691.9700    0.151744D-03
    51693.9700    0.227113D-02
    51695.9700    0.630103D-03
    51697.9700    0.334724D-02
    51699.9700    0.245095D-01
    51701.9700    0.501276D-03
    51703.9700    0.159075D-03
    51705.9700    0.117689D-02
    51707.9700    0.366297D-03
    51709.9700    0.266287D-02
    51711.9700    0.204087D-01
    51713.9700    0.869271D-03
    51715.9700    0.152808D-03
    51717.9700    0.115966D-02
    51719.9700    0.269614D-02
    51721.9700    0.429854D-03
    51723.9700    0.114591D-01
    51725.9700    0.987202D-03
    51727.9700    0.885690D-04
    51729.9700    0.182477D-02
    51731.9700    0.491269D-02
    51733.9700    0.226830D-03
    51735.9700    0.485483D-02
    51737.9700    0.711744D-03
    51739.9700    0.113687D-02
    51741.9700    0.213536D-02
    51743.9700    0.662609D-02
    51745.9700    0.695331D-04
    51747.9700    0.112917D-03
    51749.9700    0.349259D-03
    51751.9700    0.517022D-02
    51753.9700    0.184691D-02
    51755.9700    0.614263D-02
    51757.9700    0.135736D-03
    51759.9700    0.344472D-03
    51761.9700    0.171103D-03
    51763.9700    0.957811D-02
    51765.9700    0.442888D-03
    51767.9700    0.414663D-02
    51769.9700    0.314915D-03
    51771.9700    0.985060D-03
    51773.9700    0.112913D-01
    51775.9700    0.156975D-02
    51777.9700    0.857402D-04
    51779.9700    0.207120D-02
    51781.9700    0.143287D-01
    51783.9700    0.132807D-02
    51785.9700    0.967075D-02
    51787.9700    0.289361D-02
    51789.9700    0.781906D-02
    51791.9700    0.948527D-03
    51793.9700    0.136959D-03
    51795.9700    0.203826D-02
    51797.9700    0.894149D-02
    51799.9700    0.103484D-02
    51801.9700    0.170820D-01
    51803.9700    0.533099D-03
    51805.9700    0.503170D-03
    51807.9700    0.286357D-02
    51809.9700    0.601055D-02
    51811.9700    0.694669D-03
    51813.9700    0.217599D-01
    51815.9700    0.614783D-03
    51817.9700    0.354961D-02
    51819.9700    0.292708D-03
    51821.9700    0.243378D-02
    51823.9700    0.493817D-03
    51825.9700    0.177973D-01
    51827.9700    0.822636D-03
    51829.9700    0.344252D-02
    51831.9700    0.348386D-03
    51833.9700    0.207838D-02
    51835.9700    0.308991D-03
    51837.9700    0.936815D-02
    51839.9700    0.984543D-03
    51841.9700    0.342364D-02
    51843.9700    0.191018D-03
    51845.9700    0.434487D-02
    51847.9700    0.277686D-03
    51849.9700    0.353927D-02
    51851.9700    0.241466D-02
    51853.9700    0.339843D-02
    51855.9700    0.687074D-04
    51857.9700    0.694668D-02
    51859.9700    0.139646D-03
    51861.9700    0.123986D-02
    51863.9700    0.739122D-02
    51865.9700    0.251350D-02
    51867.9700    0.107780D-03
    51869.9700    0.680793D-02
    51871.9700    0.126913D-03
    51873.9700    0.672438D-03
    51875.9700    0.164842D-01
    51877.9700    0.127603D-02
    51879.9700    0.156579D-03
    51881.9700    0.426615D-02
    51883.9700    0.480478D-03
    51885.9700    0.616312D-03
    51887.9700    0.231984D-01
    51889.9700    0.968035D-03
    51891.9700    0.135222D-03
    51893.9700    0.228886D-02
    51895.9700    0.406224D-03
    51897.9700    0.894555D-03
    51899.9700    0.221832D-01
    51901.9700    0.145245D-02
    51903.9700    0.116915D-03
    51905.9700    0.108579D-02
    51907.9700    0.183905D-02
    51909.9700    0.935331D-03
    51911.9700    0.145626D-01
    51913.9700    0.158752D-02
    51915.9700    0.650362D-04
    51917.9700    0.124607D-02
    51919.9700    0.511137D-02
    51921.9700    0.550100D-03
    51923.9700    0.845244D-02
    51925.9700    0.115324D-02
    51927.9700    0.104206D-03
    51929.9700    0.161574D-02
    51931.9700    0.798771D-02
    51933.9700    0.226194D-03
    51935.9700    0.713465D-03
    51937.9700    0.573578D-03
    51939.9700    0.810658D-02
    51941.9700    0.318391D-03
    51943.9700    0.830299D-02
    51945.9700    0.264611D-03
    51947.9700    0.672316D-03
    51949.9700    0.149687D-02
    51951.9700    0.380532D-02
    51953.9700    0.662349D-03
    51955.9700    0.647044D-02
    51957.9700    0.362016D-03
    51959.9700    0.244352D-02
    51961.9700    0.426942D-02
    51963.9700    0.154020D-02
    51965.9700    0.164341D-03
    51967.9700    0.423248D-02
    51969.9700    0.283292D-03
    51971.9700    0.403170D-02
    51973.9700    0.407263D-02
    51975.9700    0.182993D-02
    51977.9700    0.784322D-02
    51979.9700    0.221881D-02
    51981.9700    0.391724D-02
    51983.9700    0.109482D-02
    51985.9700    0.232857D-02
    51987.9700    0.150377D-02
    51989.9700    0.196081D-01
    51991.9700    0.723941D-03
    51993.9700    0.395261D-02
    51995.9700    0.497309D-03
    51997.9700    0.115979D-02
    51999.9700    0.112265D-02
    52001.9700    0.294049D-01
    52003.9700    0.574690D-03
    52005.9700    0.315568D-02
    52007.9700    0.533169D-03
    52009.9700    0.434737D-04
    52011.9700    0.101469D-02
    52013.9700    0.285583D-01
    52015.9700    0.105178D-02
    52017.9700    0.279780D-02
    52019.9700    0.620922D-03
    52021.9700    0.146302D-02
    52023.9700    0.817780D-03
    52025.9700    0.195764D-01
    52027.9700    0.899230D-04
    52029.9700    0.298799D-02
    52031.9700    0.334156D-03
    52033.9700    0.580515D-02
    52035.9700    0.529105D-03
    52037.9700    0.856466D-02
    52039.9700    0.458905D-04
    52041.9700    0.341963D-02
    52043.9700    0.115162D-03
    52045.9700    0.108286D-01
    52047.9700    0.214903D-03
    52049.9700    0.950342D-03
    52051.9700    0.283362D-02
    52053.9700    0.299890D-02
    52055.9700    0.221194D-03
    52057.9700    0.121530D-01
    52059.9700    0.213252D-03
    52061.9700    0.491728D-03
    52063.9700    0.708324D-02
    52065.9700    0.193971D-02
    52067.9700    0.268928D-03
    52069.9700    0.918376D-02
    52071.9700    0.195210D-03
    52073.9700    0.662921D-03
    52075.9700    0.110905D-01
    52077.9700    0.164266D-02
    52079.9700    0.180807D-03
    52081.9700    0.512963D-02
    52083.9700    0.314952D-03
    52085.9700    0.111009D-02
    52087.9700    0.118479D-01
    52089.9700    0.235575D-02
    52091.9700    0.153133D-02
    52093.9700    0.528188D-03
    52095.9700    0.208533D-02
    52097.9700    0.114288D-02
    52099.9700    0.900324D-02
    52101.9700    0.277156D-02
    52103.9700    0.631551D-04
    52105.9700    0.602225D-03
    52107.9700    0.426255D-02
    52109.9700    0.836301D-03
    52111.9700    0.496953D-02
    52113.9700    0.230302D-02
    52115.9700    0.728461D-03
    52117.9700    0.730822D-04
    52119.9700    0.710091D-02
    52121.9700    0.494713D-03
    52123.9700    0.858069D-04
    52125.9700    0.184140D-01
    52127.9700    0.104521D-02
    52129.9700    0.365219D-03
    52131.9700    0.798833D-02
    52133.9700    0.530111D-03
    52135.9700    0.141639D-02
    52137.9700    0.839766D-02
    52139.9700    0.886149D-03
    52141.9700    0.372646D-03
    52143.9700    0.721510D-02
    52145.9700    0.512070D-03
    52147.9700    0.466177D-02
    52149.9700    0.201662D-02
    52151.9700    0.116405D-02
    52153.9700    0.260005D-03
    52155.9700    0.576451D-02
    52157.9700    0.358377D-03
    52159.9700    0.913665D-02
    52161.9700    0.753542D-04
    52163.9700    0.166508D-02
    52165.9700    0.413492D-02
    52167.9700    0.389364D-02
    52169.9700    0.101872D-01
    52171.9700    0.393763D-03
    52173.9700    0.937879D-04
    52175.9700    0.159942D-02
    52177.9700    0.114324D-01
    52179.9700    0.170661D-02
    52181.9700    0.796601D-02
    52183.9700    0.551625D-03
    52185.9700    0.124143D-03
    52187.9700    0.144041D-02
    52189.9700    0.196916D-01
    52191.9700    0.123917D-02
    52193.9700    0.424726D-02
    52195.9700    0.676195D-03
    52197.9700    0.683208D-04
    52199.9700    0.159051D-02
    52201.9700    0.225775D-01
    52203.9700    0.213711D-02
    52205.9700    0.201786D-02
    52207.9700    0.824235D-03
    52209.9700    0.136583D-02
    52211.9700    0.157802D-02
    52213.9700    0.206885D-01
    52215.9700    0.537470D-04
    52217.9700    0.146181D-02
    52219.9700    0.495908D-03
    52221.9700    0.591867D-02
    52223.9700    0.108000D-02
    52225.9700    0.122362D-01
    52227.9700    0.506608D-04
    52229.9700    0.176564D-02
    52231.9700    0.193285D-03
    52233.9700    0.122230D-01
    52235.9700    0.534241D-03
    52237.9700    0.148948D-02
    52239.9700    0.244499D-03
    52241.9700    0.171701D-02
    52243.9700    0.365728D-03
    52245.9700    0.156878D-01
    52247.9700    0.151389D-03
    52249.9700    0.800694D-03
    52251.9700    0.256888D-03
    52253.9700    0.127293D-02
    52255.9700    0.507677D-03
    52257.9700    0.135253D-01
    52259.9700    0.156136D-03
    52261.9700    0.639609D-03
    52263.9700    0.150495D-03
    52265.9700    0.157104D-02
    52267.9700    0.398554D-03
    52269.9700    0.954630D-02
    52271.9700    0.129071D-03
    52273.9700    0.100363D-02
    52275.9700    0.762378D-04
    52277.9700    0.296015D-02
    52279.9700    0.322149D-02
    52281.9700    0.154985D-02
    52283.9700    0.423505D-02
    52285.9700    0.115341D-02
    52287.9700    0.550309D-04
    52289.9700    0.385989D-02
    52291.9700    0.409293D-03
    52293.9700    0.258562D-03
    52295.9700    0.412316D-02
    52297.9700    0.994541D-03
    52299.9700    0.138467D-03
    52301.9700    0.363895D-02
    52303.9700    0.313069D-03
    52305.9700    0.868657D-04
    52307.9700    0.456965D-02
    52309.9700    0.777395D-03
    52311.9700    0.197149D-02
    52313.9700    0.243467D-01
    52315.9700    0.112332D-02
    52317.9700    0.301099D-03
    52319.9700    0.506713D-02
    52321.9700    0.897381D-03
    52323.9700    0.196822D-02
    52325.9700    0.174717D-01
    52327.9700    0.155696D-02
    52329.9700    0.349307D-03
    52331.9700    0.493163D-02
    52333.9700    0.818622D-03
    52335.9700    0.668323D-02
    52337.9700    0.703712D-02
    52339.9700    0.185853D-02
    52341.9700    0.262941D-03
    52343.9700    0.436965D-02
    52345.9700    0.138178D-01
    52347.9700    0.395021D-03
    52349.9700    0.993250D-04
    52351.9700    0.189088D-02
    52353.9700    0.295935D-03
    52355.9700    0.372761D-02
 -----------------------------

 Leave Link  718 at Wed Jul 30 07:40:35 2025, MaxMem= 12348030976 cpu:             307.3 elap:               5.6
 (Enter /home/hhratchian/gaussian/gdv-20250101-j30+/gdv/local/l9999.exe)

 ----------------------------------------------------------------------

 Electric dipole moment (input orientation):
 (Debye = 10**-18 statcoulomb cm , SI units = C m)
                  (au)            (Debye)         (10**-30 SI)
   Tot        0.367137D+00      0.933169D+00      0.311272D+01
   x          0.143525D+00      0.364804D+00      0.121685D+01
   y         -0.104292D-01     -0.265084D-01     -0.884226D-01
   z         -0.337759D+00     -0.858499D+00     -0.286364D+01

 Dipole polarizability, Alpha (input orientation).
 (esu units = cm**3 , SI units = C**2 m**2 J**-1)
 Alpha(0;0):
               (au)            (10**-24 esu)      (10**-40 SI)
   iso        0.163257D+02      0.241922D+01      0.269174D+01
   aniso      0.140365D+02      0.207999D+01      0.231430D+01
   xx         0.772561D+01      0.114482D+01      0.127378D+01
   yx        -0.565507D+00     -0.837995D-01     -0.932395D-01
   yy         0.175308D+02      0.259780D+01      0.289044D+01
   zx         0.408159D+00      0.604829D-01      0.672963D-01
   zy         0.371505D+00      0.550514D-01      0.612529D-01
   zz         0.237207D+02      0.351504D+01      0.391101D+01

 ----------------------------------------------------------------------

 Dipole orientation:
     6         -0.23389194          0.02237405         -0.09644199
     8          1.05332968         -0.06946664         -2.26281811
     1         -0.40637192         -1.71454572          1.12114681
     1         -0.15787243          1.76645024          1.12075183

 Electric dipole moment (dipole orientation):
 (Debye = 10**-18 statcoulomb cm , SI units = C m)
                  (au)            (Debye)         (10**-30 SI)
   Tot        0.367137D+00      0.933169D+00      0.311272D+01
   x          0.000000D+00      0.000000D+00      0.000000D+00
   y          0.000000D+00      0.000000D+00      0.000000D+00
   z          0.367137D+00      0.933169D+00      0.311272D+01

 Dipole polarizability, Alpha (dipole orientation).
 (esu units = cm**3 , SI units = C**2 m**2 J**-1)
 Alpha(0;0):
               (au)            (10**-24 esu)      (10**-40 SI)
   iso        0.163257D+02      0.241922D+01      0.269174D+01
   aniso      0.140365D+02      0.207999D+01      0.231430D+01
   xx         0.104598D+02      0.154998D+01      0.172458D+01
   yx         0.505870D+00      0.749622D-01      0.834067D-01
   yy         0.175077D+02      0.259437D+01      0.288663D+01
   zx        -0.603004D+01     -0.893559D+00     -0.994219D+00
   zy         0.429333D+00      0.636206D-01      0.707875D-01
   zz         0.210096D+02      0.311330D+01      0.346401D+01

 ----------------------------------------------------------------------

 No summary archive entry generated for this type of calculation.


 BLACK HOLES SUCK.
 Job cpu time:       0 days  0 hours  5 minutes 12.9 seconds.
 Elapsed time:       0 days  0 hours  0 minutes  6.1 seconds.
 File lengths (MBytes):  RWF=     31 Int=      0 D2E=      0 Chk=     74 Scr=      2
 Normal termination of Gaussian DV at Wed Jul 30 07:40:38 2025.
