 Set GAUSS_MDEF to "92GB".
 Set GAUSS_PDEF to "56".
 Entering Gaussian System, Link 0=gdv
 Initial command:
 /home/hhratchian/gaussian/gdv-20250101-j30+/gdv/local/l1.exe "/scratch/aaboutaka/1561497/Gau-398079.inp" -scrdir="/scratch/aaboutaka/1561497/"
 Default is to use a total of  56 processors:
                               56 via shared-memory
                                1 via Linda
 Entering Link 1 = /home/hhratchian/gaussian/gdv-20250101-j30+/gdv/local/l1.exe PID=    398080.
  
 Copyright (c) 1988-2024, Gaussian, Inc.  All Rights Reserved.
  
 This is the private, development version of
 the Gaussian(R) DV system of programs. It is based on
 the Gaussian(R) 16 system (copyright 2016, Gaussian, Inc.),
 the Gaussian(R) 09 system (copyright 2009, Gaussian, Inc.),
 the Gaussian(R) 03 system (copyright 2003, Gaussian, Inc.),
 the Gaussian(R) 98 system (copyright 1998, Gaussian, Inc.),
 the Gaussian(R) 94 system (copyright 1995, Gaussian, Inc.),
 the Gaussian 92(TM) system (copyright 1992, Gaussian, Inc.),
 the Gaussian 90(TM) system (copyright 1990, Gaussian, Inc.),
 the Gaussian 88(TM) system (copyright 1988, Gaussian, Inc.),
 the Gaussian 86(TM) system (copyright 1986, Carnegie Mellon
 University), and the Gaussian 82(TM) system (copyright 1983,
 Carnegie Mellon University). Gaussian is a federally registered
 trademark of Gaussian, Inc.
  
 This software contains proprietary and confidential information,
 including trade secrets, belonging to Gaussian, Inc.
  
 This software is provided under written license and may be
 used, copied, transmitted, or stored only in accord with that
 written license.
  
 The following legend is applicable only to US Government
 contracts under FAR:
  
                    RESTRICTED RIGHTS LEGEND
  
 Use, reproduction and disclosure by the US Government is
 subject to restrictions as set forth in subparagraphs (a)
 and (c) of the Commercial Computer Software - Restricted
 Rights clause in FAR 52.227-19.
  
 Gaussian, Inc.
 340 Quinnipiac St., Bldg. 40, Wallingford CT 06492
  
  
 ---------------------------------------------------------------
 Warning -- This program may not be used in any manner that
 competes with the business of Gaussian, Inc. or will provide
 assistance to any competitor of Gaussian, Inc.  The licensee
 of this program is prohibited from giving any competitor of
 Gaussian, Inc. access to this program.  By using this program,
 the user acknowledges that Gaussian, Inc. is engaged in the
 business of creating and licensing software in the field of
 computational chemistry and represents and warrants to the
 licensee that it is not a competitor of Gaussian, Inc. and that
 it will not use this program in any manner prohibited above.
 ---------------------------------------------------------------
  

 Cite this work as:
 Gaussian Development Version, Revision J.30+,
 M. J. Frisch, G. W. Trucks, G. Scalmani, J. R. Cheeseman, X. Li, 
 J. Bloino, B. G. Janesko, A. V. Marenich, J. Zheng, F. Lipparini, 
 A. Jenkins, A. Liu, H. Liu, H. B. Schlegel, G. E. Scuseria, 
 M. A. Robb, V. Barone, G. A. Petersson, H. Nakatsuji, B. Mennucci, 
 C. Adamo, N. Rega, M. Caricato, H. P. Hratchian, J. V. Ortiz, 
 F. Pawlowski, A. F. Izmaylov, H. Hu, C. Liao, J. L. Sonnenberg, 
 D. Williams-Young, F. Ding, R. Gomperts, F. Egidi, J. Goings, 
 B. Peng, A. Petrone, T. Henderson, D. Ranasinghe, V. G. Zakrzewski, 
 J. Gao, G. Zheng, W. Liang, M. Hada, M. Ehara, K. Toyota, R. Fukuda, 
 J. Hasegawa, M. Ishida, T. Nakajima, Y. Honda, O. Kitao, H. Nakai, 
 T. Vreven, K. Throssell, J. A. Montgomery, Jr., J. E. Peralta, 
 F. Ogliaro, M. J. Bearpark, J. J. Heyd, E. N. Brothers, K. N. Kudin, 
 V. N. Staroverov, T. A. Keith, R. Kobayashi, J. Normand, 
 K. Raghavachari, A. P. Rendell, J. C. Burant, S. S. Iyengar, 
 M. Cossi, J. M. Millam, M. Klene, R. Cammi, R. L. Martin, O. Farkas, 
 J. B. Foresman, and D. J. Fox, Gaussian, Inc., Wallingford CT, 2024.
 
 *******************************************
 Gaussian DV:  ES64L-GDVRevJ.30+ 18-Dec-2024
                 30-Jul-2025 
 *******************************************
 %chk=ch2o_neutral.chk
 -----------------------
 #p B3LYP/6-31G opt freq
 -----------------------
 1/18=20,19=15,26=4,37=210000000,38=1/1,3;
 2/9=110,12=2/2;
 3/5=1,6=6,11=2,25=1,30=1,71=1,74=-5/1,2,3;
 4//1;
 5/5=2,38=5/2;
 6/7=2,8=2,9=2,10=2,28=1/1;
 7//1,2,3,16;
 1/18=20,19=15,26=4/3(2);
 2/9=110/2;
 99//99;
 2/9=110/2;
 3/5=1,6=6,11=2,25=1,30=1,71=1,74=-5/1,2,3;
 4/5=5,16=3,69=1/1;
 5/5=2,38=5/2;
 7//1,2,3,16;
 1/18=20,19=15,26=4/3(-5);
 2/9=110/2;
 6/7=2,8=2,9=2,10=2,19=2,28=1/1;
 99/9=1/99;
 Leave Link    1 at Wed Jul 30 08:01:49 2025, MaxMem=           0 cpu:               0.2 elap:               0.0
 (Enter /home/hhratchian/gaussian/gdv-20250101-j30+/gdv/local/l101.exe)
 
  Hrant - IAPOps =                         0
  Hrant - IAPOp1 =                         0
  Hrant - IAPOp2 =                         0
  Hrant - DoAP   =   F
 
 ------------
 CH2O neutral
 ------------
 Symbolic Z-matrix:
 Charge =     0 Multiplicity =     1
 6                     0.        0.       -0.00592 
 8                     0.        0.        1.22569 
 1                     0.        0.9334   -0.59289 
 1                     0.       -0.9334   -0.59289 
 
 Initializing the GIC definitions file.
 ITRead=  0  0  0  0
 MicOpt= -1 -1 -1 -1
 NAtoms=      4 NQM=        4 NQMF=       0 NMMI=      0 NMMIF=      0
                NMic=       0 NMicF=      0.
                    Isotopes and Nuclear Properties:
 (Nuclear quadrupole moments (NQMom) in fm**2, nuclear magnetic moments (NMagM)
  in nuclear magnetons)

  Atom         1           2           3           4
 IAtWgt=          12          16           1           1
 AtmWgt=  12.0000000  15.9949146   1.0078250   1.0078250
 NucSpn=           0           0           1           1
 AtZEff=   -0.000000   -0.000000   -0.000000   -0.000000
 NQMom=    0.0000000   0.0000000   0.0000000   0.0000000
 NMagM=    0.0000000   0.0000000   2.7928460   2.7928460
 AtZNuc=   6.0000000   8.0000000   1.0000000   1.0000000
 Leave Link  101 at Wed Jul 30 08:01:53 2025, MaxMem= 12348030976 cpu:               4.0 elap:               3.8
 (Enter /home/hhratchian/gaussian/gdv-20250101-j30+/gdv/l103.exe)

 GradGradGradGradGradGradGradGradGradGradGradGradGradGradGradGradGradGrad
 Berny optimization.
 Initialization pass.
                           ----------------------------
                           !    Initial Parameters    !
                           ! (Angstroms and Degrees)  !
 --------------------------                            --------------------------
 ! Name  Definition              Value          Derivative Info.                !
 --------------------------------------------------------------------------------
 ! R1    R(1,2)                  1.2316         estimate D2E/DX2                !
 ! R2    R(1,3)                  1.1026         estimate D2E/DX2                !
 ! R3    R(1,4)                  1.1026         estimate D2E/DX2                !
 ! A1    A(2,1,3)              122.1636         estimate D2E/DX2                !
 ! A2    A(2,1,4)              122.1636         estimate D2E/DX2                !
 ! A3    A(3,1,4)              115.6728         estimate D2E/DX2                !
 ! D1    D(3,1,2,4)            180.0            estimate D2E/DX2                !
 --------------------------------------------------------------------------------
 Trust Radius=3.00D-01 FncErr=1.00D-07 GrdErr=1.00D-06 EigMax=2.50D+02 EigMin=1.00D-04
 Number of steps in this run=     20 maximum allowed number of steps=    100.
 GradGradGradGradGradGradGradGradGradGradGradGradGradGradGradGradGradGrad

 Leave Link  103 at Wed Jul 30 08:01:53 2025, MaxMem= 12348030976 cpu:               0.1 elap:               0.0
 (Enter /home/hhratchian/gaussian/gdv-20250101-j30+/gdv/l202.exe)
                          Input orientation:                          
 ---------------------------------------------------------------------
 Center     Atomic      Atomic             Coordinates (Angstroms)
 Number     Number       Type             X           Y           Z
 ---------------------------------------------------------------------
      1          6           0        0.000000    0.000000   -0.005920
      2          8           0        0.000000    0.000000    1.225690
      3          1           0        0.000000    0.933400   -0.592885
      4          1           0        0.000000   -0.933400   -0.592885
 ---------------------------------------------------------------------
                    Distance matrix (angstroms):
                    1          2          3          4
     1  C    0.000000
     2  O    1.231610   0.000000
     3  H    1.102617   2.044126   0.000000
     4  H    1.102617   2.044126   1.866800   0.000000
 Stoichiometry    CH2O
 Framework group  C2V[C2(CO),SGV(H2)]
 Deg. of freedom     3
 Full point group                 C2V     NOp   4
 Largest Abelian subgroup         C2V     NOp   4
 Largest concise Abelian subgroup C2      NOp   2
                         Standard orientation:                         
 ---------------------------------------------------------------------
 Center     Atomic      Atomic             Coordinates (Angstroms)
 Number     Number       Type             X           Y           Z
 ---------------------------------------------------------------------
      1          6           0        0.000000    0.000000   -0.542434
      2          8           0        0.000000   -0.000000    0.689176
      3          1           0        0.000000    0.933400   -1.129399
      4          1           0       -0.000000   -0.933400   -1.129399
 ---------------------------------------------------------------------
 Rotational constants (GHZ):         287.7838827          37.3468926          33.0569561
 Leave Link  202 at Wed Jul 30 08:01:53 2025, MaxMem= 12348030976 cpu:               0.3 elap:               0.0
 (Enter /home/hhratchian/gaussian/gdv-20250101-j30+/gdv/local/l301.exe)
 Standard basis: 6-31G (6D, 7F)
 Ernie: Thresh=  0.10000D-02 Tol=  0.10000D-05 Strict=F.
 There are    12 symmetry adapted cartesian basis functions of A1  symmetry.
 There are     0 symmetry adapted cartesian basis functions of A2  symmetry.
 There are     4 symmetry adapted cartesian basis functions of B1  symmetry.
 There are     6 symmetry adapted cartesian basis functions of B2  symmetry.
 There are    12 symmetry adapted basis functions of A1  symmetry.
 There are     0 symmetry adapted basis functions of A2  symmetry.
 There are     4 symmetry adapted basis functions of B1  symmetry.
 There are     6 symmetry adapted basis functions of B2  symmetry.
    22 basis functions,    52 primitive gaussians,    22 cartesian basis functions
     8 alpha electrons        8 beta electrons
       nuclear repulsion energy        30.8084650328 Hartrees.
 IExCor=      4002 DFT=T Ex+Corr=B3LYP ScaHFX=  0.200000
 ScaDFX=  0.800000  0.720000  1.000000  0.810000  1.000000  0.000000
 ScaDFX=  0.000000  0.000000  0.000000  0.000000  0.000000  0.000000
 Grid=UltraFine IRanWt=     -1 IRanGd=            0 ICorTp=0 IEDCtl=  2004
 NAtoms=    4 NActive=    4 NUniq=    3 SFac= 1.78D+00 NAtFMM=   60 NAOKFM=F Big=F
 Integral buffers will be    131072 words long.
 Raffenetti 2 integral format.
 Two-electron integral symmetry is turned on.
 Leave Link  301 at Wed Jul 30 08:01:53 2025, MaxMem= 12348030976 cpu:               0.2 elap:               0.1
 (Enter /home/hhratchian/gaussian/gdv-20250101-j30+/gdv/l302.exe)
 NPDir=0 NMtPBC=     1 NCelOv=     1 NCel=       1 NClECP=     1 NCelD=      1
         NCelK=      1 NCelE2=     1 NClLst=     1 CellRange=     0.0.
 One-electron integrals computed using PRISM.
 One-electron integral symmetry used in STVInt
 NBasis=    22 RedAO= T EigKep=  2.41D-02  NBF=    12     0     4     6
 NBsUse=    22 1.00D-06 EigRej= -1.00D+00 NBFU=    12     0     4     6
 Precomputing XC quadrature grid using
 IXCGrd=   9 Grid=UltraFine IRanWt=          -1 IRanGd=           0 AccXCQ= 0.00D+00.
 Generated NRdTot=       0 NPtTot=       90134 NUsed=           0 NTot=          64
 NSgBfM=    22    22    22    22    22 MxSgAt=     4 MxSgA2=     4 SizInc=   0.000
 NMBTot=      826 MaxBatPerAtom=       82 MaxMicBPerAtom=      209 NBfPt=             1715876.
 Leave Link  302 at Wed Jul 30 08:01:53 2025, MaxMem= 12348030976 cpu:               2.0 elap:               0.1
 (Enter /home/hhratchian/gaussian/gdv-20250101-j30+/gdv/l303.exe)
 DipDrv:  MaxL=1.
 Leave Link  303 at Wed Jul 30 08:01:53 2025, MaxMem= 12348030976 cpu:               0.3 elap:               0.0
 (Enter /home/hhratchian/gaussian/gdv-20250101-j30+/gdv/l401.exe)
 ExpMin= 1.61D-01 ExpMax= 5.48D+03 ExpMxC= 8.25D+02 IAcc=3 Grid=UltraFine AccDes= 0.00D+00
 Harris functional with IExCor= 4002 and Grid=UltraFine diagonalized for initial guess.
 HarFok:  IExCor=    4002 AccDes= 0.00D+00 Grid=UltraFine IDoV= 1 UseB2=F ITyADJ=14 ICtDFT=  3500011
 FoFCou: FMM=F IPFlag=           0 FMFlag=      100000 FMFlg1=           0
         NFxFlg=           0 DoJE=T BraDBF=F KetDBF=T FulRan=T
         wScrn=  0.000000 ICntrl=       500 IOpCl=  0 I1Cent=   200000004 NGrid=           0
         NMat0=    1 NMatS0=      1 NMatT0=    0 NMatD0=    1 NMtDS0=    0 NMtDT0=    0
 Petite list used in FoFCou.
 Harris En= -114.474358318206    
 JPrj=0 DoOrth=F DoCkMO=F.
 Initial guess orbital symmetries:
       Occupied  (A1) (A1) (A1) (A1) (B2) (A1) (B1) (B2)
       Virtual   (B1) (A1) (B2) (A1) (B1) (A1) (B2) (A1) (B2) (A1)
                 (B1) (A1) (B2) (A1)
 The electronic state of the initial guess is 1-A1.
 Leave Link  401 at Wed Jul 30 08:01:53 2025, MaxMem= 12348030976 cpu:               3.6 elap:               0.1
 (Enter /home/hhratchian/gaussian/gdv-20250101-j30+/gdv/local/l502.exe)
 Keep R1 ints in memory in symmetry-blocked form, NReq=48443327.
 FoFCou: FMM=F IPFlag=           0 FMFlag=           0 FMFlg1=           0
         NFxFlg=           0 DoJE=F BraDBF=F KetDBF=F FulRan=T
         wScrn=  0.000000 ICntrl=       600 IOpCl=  0 I1Cent=           0 NGrid=           0
         NMat0=    1 NMatS0=    253 NMatT0=    0 NMatD0=    1 NMtDS0=    0 NMtDT0=    0
 Petite list used in FoFCou.
 Closed shell SCF:
 Using DIIS extrapolation, IDIIS=  1040.
 NGot= 12348030976 LenX= 12348016719 LenY= 12348015794
 Requested convergence on RMS density matrix=1.00D-08 within 128 cycles.
 Requested convergence on MAX density matrix=1.00D-06.
 Requested convergence on             energy=1.00D-06.
 No special actions if energy rises.
 Integral accuracy reduced to 1.0D-05 until final iterations.
 
  Hrant - CycOpn.
 

 Cycle   1  Pass 0  IDiag  1:
 E= -114.409425697084    
 DIIS: error= 5.81D-02 at cycle   1 NSaved=   1.
 NSaved= 1 IEnMin= 1 EnMin= -114.409425697084     IErMin= 1 ErrMin= 5.81D-02
 ErrMax= 5.81D-02  0.00D+00 EMaxC= 1.00D-01 BMatC= 2.95D-02 BMatP= 2.95D-02
 Rises=F IDIUse=3 WtCom= 4.19D-01 WtEn= 5.81D-01
 Coeff-Com:  0.100D+01
 Coeff-En:   0.100D+01
 Coeff:      0.100D+01
 Gap=     0.149 Goal=   None    Shift=    0.000
 GapD=    0.149 DampG=1.000 DampE=0.500 DampFc=0.5000 IDamp=-1.
 Damping current iteration by 5.00D-01
 RMSDP=3.28D-02 MaxDP=1.94D-01              OVMax= 3.16D-01

 Cycle   2  Pass 0  IDiag  1:
 E= -114.399302575146     Delta-E=        0.010123121938 Rises=F Damp=T AM=F Ri=F Fa=F
 DIIS: error= 3.95D-02 at cycle   2 NSaved=   2.
 NSaved= 2 IEnMin= 1 EnMin= -114.409425697084     IErMin= 2 ErrMin= 3.95D-02
 ErrMax= 3.95D-02  0.00D+00 EMaxC= 1.00D-01 BMatC= 1.35D-02 BMatP= 2.95D-02
 Rises=T IDIUse=3 WtCom= 6.05D-01 WtEn= 3.95D-01
 Coeff-Com:  0.394D+00 0.606D+00
 Coeff-En:   0.558D+00 0.442D+00
 Coeff:      0.459D+00 0.541D+00
 Gap=     0.200 Goal=   None    Shift=    0.000
 RMSDP=6.11D-03 MaxDP=3.27D-02 DE= 1.01D-02 OVMax= 2.10D-01

 Cycle   3  Pass 0  IDiag  1:
 E= -114.458867430385     Delta-E=       -0.059564855239 Rises=F Damp=F AM=F Ri=F Fa=F
 DIIS: error= 9.39D-03 at cycle   3 NSaved=   3.
 NSaved= 3 IEnMin= 3 EnMin= -114.458867430385     IErMin= 3 ErrMin= 9.39D-03
 ErrMax= 9.39D-03  0.00D+00 EMaxC= 1.00D-01 BMatC= 1.28D-03 BMatP= 1.35D-02
 Rises=F IDIUse=3 WtCom= 9.09D-01 WtEn= 9.09D-02
 Coeff-Com:  0.197D+00 0.139D+00 0.664D+00
 Coeff-En:   0.000D+00 0.000D+00 0.100D+01
 Coeff:      0.179D+00 0.126D+00 0.695D+00
 Gap=     0.212 Goal=   None    Shift=    0.000
 RMSDP=2.70D-03 MaxDP=1.53D-02 DE=-5.96D-02 OVMax= 1.62D-02

 Cycle   4  Pass 0  IDiag  1:
 E= -114.461034215959     Delta-E=       -0.002166785574 Rises=F Damp=F AM=F Ri=F Fa=F
 DIIS: error= 2.58D-03 at cycle   4 NSaved=   4.
 NSaved= 4 IEnMin= 4 EnMin= -114.461034215959     IErMin= 4 ErrMin= 2.58D-03
 ErrMax= 2.58D-03  0.00D+00 EMaxC= 1.00D-01 BMatC= 4.69D-05 BMatP= 1.28D-03
 Rises=F IDIUse=3 WtCom= 9.87D-01 WtEn= 1.31D-02
 Coeff-Com:  0.238D-01-0.193D-01 0.222D+00 0.773D+00
 Coeff-En:   0.000D+00 0.000D+00 0.000D+00 0.100D+01
 Coeff:      0.235D-01-0.190D-01 0.219D+00 0.776D+00
 Gap=     0.214 Goal=   None    Shift=    0.000
 RMSDP=4.45D-04 MaxDP=3.69D-03 DE=-2.17D-03 OVMax= 3.15D-03

 Cycle   5  Pass 0  IDiag  1:
 E= -114.461132628327     Delta-E=       -0.000098412368 Rises=F Damp=F AM=F Ri=F Fa=F
 DIIS: error= 5.35D-04 at cycle   5 NSaved=   5.
 NSaved= 5 IEnMin= 5 EnMin= -114.461132628327     IErMin= 5 ErrMin= 5.35D-04
 ErrMax= 5.35D-04  0.00D+00 EMaxC= 1.00D-01 BMatC= 2.14D-06 BMatP= 4.69D-05
 Rises=F IDIUse=3 WtCom= 9.99D-01 WtEn= 1.24D-03
 Coeff-Com:  0.508D-02-0.107D-01 0.287D-01 0.119D+00 0.858D+00
 Coeff-En:   0.000D+00 0.000D+00 0.000D+00 0.000D+00 0.100D+01
 Coeff:      0.507D-02-0.107D-01 0.286D-01 0.119D+00 0.858D+00
 Gap=     0.214 Goal=   None    Shift=    0.000
 RMSDP=1.10D-04 MaxDP=5.32D-04 DE=-9.84D-05 OVMax= 7.93D-04

 Cycle   6  Pass 0  IDiag  1:
 E= -114.461136538085     Delta-E=       -0.000003909758 Rises=F Damp=F AM=F Ri=F Fa=F
 DIIS: error= 4.91D-05 at cycle   6 NSaved=   6.
 NSaved= 6 IEnMin= 6 EnMin= -114.461136538085     IErMin= 6 ErrMin= 4.91D-05
 ErrMax= 4.91D-05  0.00D+00 EMaxC= 1.00D-01 BMatC= 2.01D-08 BMatP= 2.14D-06
 Rises=F IDIUse=1 WtCom= 1.00D+00 WtEn= 0.00D+00
 Coeff-Com:  0.240D-03-0.518D-03 0.338D-04-0.479D-02-0.305D-01 0.104D+01
 Coeff:      0.240D-03-0.518D-03 0.338D-04-0.479D-02-0.305D-01 0.104D+01
 Gap=     0.214 Goal=   None    Shift=    0.000
 RMSDP=7.35D-06 MaxDP=3.34D-05 DE=-3.91D-06 OVMax= 5.73D-05

 Initial convergence to 1.0D-05 achieved.  Increase integral accuracy.
 Cycle   7  Pass 1  IDiag  1:
 E= -114.461137095232     Delta-E=       -0.000000557147 Rises=F Damp=F AM=F Ri=F Fa=F
 DIIS: error= 5.53D-06 at cycle   1 NSaved=   1.
 NSaved= 1 IEnMin= 1 EnMin= -114.461137095232     IErMin= 1 ErrMin= 5.53D-06
 ErrMax= 5.53D-06  0.00D+00 EMaxC= 1.00D-01 BMatC= 2.22D-10 BMatP= 2.22D-10
 Rises=F IDIUse=1 WtCom= 1.00D+00 WtEn= 0.00D+00
 Coeff-Com:  0.100D+01
 Coeff:      0.100D+01
 Gap=     0.214 Goal=   None    Shift=    0.000
 RMSDP=7.35D-06 MaxDP=3.34D-05 DE=-5.57D-07 OVMax= 3.11D-05

 Cycle   8  Pass 1  IDiag  1:
 E= -114.461137093494     Delta-E=        0.000000001739 Rises=F Damp=F AM=F Ri=F Fa=F
 DIIS: error= 1.37D-05 at cycle   2 NSaved=   2.
 NSaved= 2 IEnMin= 1 EnMin= -114.461137095232     IErMin= 1 ErrMin= 5.53D-06
 ErrMax= 1.37D-05  0.00D+00 EMaxC= 1.00D-01 BMatC= 1.31D-09 BMatP= 2.22D-10
 Rises=F IDIUse=1 WtCom= 1.00D+00 WtEn= 0.00D+00
 Coeff-Com:  0.710D+00 0.290D+00
 Coeff:      0.710D+00 0.290D+00
 Gap=     0.214 Goal=   None    Shift=    0.000
 RMSDP=1.61D-06 MaxDP=1.27D-05 DE= 1.74D-09 OVMax= 2.17D-05

 Cycle   9  Pass 1  IDiag  1:
 E= -114.461137095620     Delta-E=       -0.000000002126 Rises=F Damp=F AM=F Ri=F Fa=F
 DIIS: error= 1.95D-07 at cycle   3 NSaved=   3.
 NSaved= 3 IEnMin= 3 EnMin= -114.461137095620     IErMin= 3 ErrMin= 1.95D-07
 ErrMax= 1.95D-07  0.00D+00 EMaxC= 1.00D-01 BMatC= 1.83D-13 BMatP= 2.22D-10
 Rises=F IDIUse=1 WtCom= 1.00D+00 WtEn= 0.00D+00
 Coeff-Com:  0.359D-01 0.619D-02 0.958D+00
 Coeff:      0.359D-01 0.619D-02 0.958D+00
 Gap=     0.214 Goal=   None    Shift=    0.000
 RMSDP=6.40D-08 MaxDP=3.23D-07 DE=-2.13D-09 OVMax= 6.06D-07

 Cycle  10  Pass 1  IDiag  1:
 E= -114.461137095620     Delta-E=       -0.000000000001 Rises=F Damp=F AM=F Ri=F Fa=F
 DIIS: error= 6.89D-08 at cycle   4 NSaved=   4.
 NSaved= 4 IEnMin= 4 EnMin= -114.461137095620     IErMin= 4 ErrMin= 6.89D-08
 ErrMax= 6.89D-08  0.00D+00 EMaxC= 1.00D-01 BMatC= 6.05D-14 BMatP= 1.83D-13
 Rises=F IDIUse=1 WtCom= 1.00D+00 WtEn= 0.00D+00
 Coeff-Com: -0.320D-02 0.185D-03 0.289D+00 0.714D+00
 Coeff:     -0.320D-02 0.185D-03 0.289D+00 0.714D+00
 Gap=     0.214 Goal=   None    Shift=    0.000
 RMSDP=1.83D-08 MaxDP=9.36D-08 DE=-5.68D-13 OVMax= 1.15D-07

 Cycle  11  Pass 1  IDiag  1:
 E= -114.461137095620     Delta-E=       -0.000000000000 Rises=F Damp=F AM=F Ri=F Fa=F
 DIIS: error= 2.97D-08 at cycle   5 NSaved=   5.
 NSaved= 5 IEnMin= 5 EnMin= -114.461137095620     IErMin= 5 ErrMin= 2.97D-08
 ErrMax= 2.97D-08  0.00D+00 EMaxC= 1.00D-01 BMatC= 7.73D-15 BMatP= 6.05D-14
 Rises=F IDIUse=1 WtCom= 1.00D+00 WtEn= 0.00D+00
 Coeff-Com: -0.587D-02 0.367D-03 0.248D-01 0.260D+00 0.721D+00
 Coeff:     -0.587D-02 0.367D-03 0.248D-01 0.260D+00 0.721D+00
 Gap=     0.214 Goal=   None    Shift=    0.000
 RMSDP=4.67D-09 MaxDP=2.88D-08 DE=-8.53D-14 OVMax= 4.69D-08

 SCF Done:  E(RB3LYP) =  -114.461137096     A.U. after   11 cycles
            NFock= 11  Conv=0.47D-08     -V/T= 2.0057
 KE=         113.812495 PE=        -330.199128 EE=          71.117031
 Leave Link  502 at Wed Jul 30 08:01:53 2025, MaxMem= 12348030976 cpu:               4.8 elap:               0.2
 (Enter /home/hhratchian/gaussian/gdv-20250101-j30+/gdv/l601.exe)
 Copying SCF densities to generalized density rwf, IOpCl= 0 IROHF=0.
 
 **********************************************************************
 
               Population analysis using the SCF Density.
 
 **********************************************************************
 
 Orbital symmetries:
       Occupied  (A1) (A1) (A1) (A1) (B2) (A1) (B1) (B2)
       Virtual   (B1) (A1) (B2) (A1) (B1) (B2) (A1) (A1) (B2) (A1)
                 (A1) (B1) (B2) (A1)
 The electronic state is 1-A1.
 Alpha  occ. eigenvalues --      -19.17475     -10.29213      -1.07384      -0.64570      -0.50427
 Alpha  occ. eigenvalues --       -0.44404      -0.39958      -0.27097
 Alpha virt. eigenvalues --       -0.05653       0.09862       0.17344       0.21128       0.50685
 Alpha virt. eigenvalues --        0.62127       0.63061       0.70790       0.85730       0.87900
 Alpha virt. eigenvalues --        0.95225       0.95516       1.10349       1.59398
          Condensed to atoms (all electrons):
               1          2          3          4
     1  C    4.800956   0.465730   0.319729   0.319729
     2  O    0.465730   7.996662  -0.060545  -0.060545
     3  H    0.319729  -0.060545   0.712752  -0.095659
     4  H    0.319729  -0.060545  -0.095659   0.712752
 Mulliken charges:
               1
     1  C    0.093856
     2  O   -0.341302
     3  H    0.123723
     4  H    0.123723
 Sum of Mulliken charges=  -0.00000
 Mulliken charges with hydrogens summed into heavy atoms:
               1
     1  C    0.341302
     2  O   -0.341302
 Electronic spatial extent (au):  <R**2>=             61.5260
 Charge=             -0.0000 electrons
 Dipole moment (field-independent basis, Debye):
    X=             -0.0000    Y=             -0.0000    Z=             -2.4705  Tot=              2.4705
 Quadrupole moment (field-independent basis, Debye-Ang):
   XX=            -11.5125   YY=            -11.5507   ZZ=            -12.3381
   XY=              0.0000   XZ=              0.0000   YZ=             -0.0000
 Traceless Quadrupole moment (field-independent basis, Debye-Ang):
   XX=              0.2880   YY=              0.2497   ZZ=             -0.5377
   XY=              0.0000   XZ=              0.0000   YZ=             -0.0000
 Octapole moment (field-independent basis, Debye-Ang**2):
  XXX=              0.0000  YYY=             -0.0000  ZZZ=              0.5760  XYY=              0.0000
  XXY=              0.0000  XXZ=              0.9509  XZZ=              0.0000  YZZ=              0.0000
  YYZ=             -0.0789  XYZ=             -0.0000
 Hexadecapole moment (field-independent basis, Debye-Ang**3):
 XXXX=             -9.3718 YYYY=            -17.8941 ZZZZ=            -45.4751 XXXY=             -0.0000
 XXXZ=             -0.0000 YYYX=             -0.0000 YYYZ=              0.0000 ZZZX=             -0.0000
 ZZZY=             -0.0000 XXYY=             -4.7415 XXZZ=             -9.1418 YYZZ=            -10.3144
 XXYZ=             -0.0000 YYXZ=             -0.0000 ZZXY=             -0.0000
 N-N=          30.808465 E-N=        -330.199127  KE=         113.812495
 Symmetry A1   KE=         103.429797
 Symmetry A2   KE=           0.000000
 Symmetry B1   KE=           3.601408
 Symmetry B2   KE=           6.781290
 No NMR shielding tensors so no spin-rotation constants.
 Leave Link  601 at Wed Jul 30 08:01:53 2025, MaxMem= 12348030976 cpu:               2.2 elap:               0.1
 (Enter /home/hhratchian/gaussian/gdv-20250101-j30+/gdv/l701.exe)
 ... and contract with generalized density number  0.
 Compute integral first derivatives.
 Leave Link  701 at Wed Jul 30 08:01:54 2025, MaxMem= 12348030976 cpu:               2.1 elap:               0.1
 (Enter /home/hhratchian/gaussian/gdv-20250101-j30+/gdv/l702.exe)
 L702 exits ... SP integral derivatives will be done elsewhere.
 Leave Link  702 at Wed Jul 30 08:01:54 2025, MaxMem= 12348030976 cpu:               0.2 elap:               0.0
 (Enter /home/hhratchian/gaussian/gdv-20250101-j30+/gdv/l703.exe)
 Integral derivatives from FoFJK, PRISM(SPDF).
 Compute integral first derivatives, UseDBF=F ICtDFT=           0.
 Calling FoFJK, ICntrl=      2127 FMM=F ISym2X=1 I1Cent= 0 IOpClX= 0 NMat=1 NMatS=1 NMatT=0.
 FoFJK:  IHMeth= 1 ICntrl=    2127 DoSepK=F KAlg= 0 I1Cent=           0 FoldK=F
 IRaf=         0 NMat=       1 IRICut=       1 DoRegI=T DoRafI=F ISym2E= 1 IDoP0=0 IntGTp=1.
 FoFCou: FMM=F IPFlag=           0 FMFlag=      100000 FMFlg1=         800
         NFxFlg=           0 DoJE=F BraDBF=F KetDBF=F FulRan=T
         wScrn=  0.000000 ICntrl=      2127 IOpCl=  0 I1Cent=           0 NGrid=           0
         NMat0=    1 NMatS0=      1 NMatT0=    0 NMatD0=    1 NMtDS0=    0 NMtDT0=    0
 Petite list used in FoFCou.
 Leave Link  703 at Wed Jul 30 08:01:54 2025, MaxMem= 12348030976 cpu:               3.0 elap:               0.1
 (Enter /home/hhratchian/gaussian/gdv-20250101-j30+/gdv/l716.exe)
 Dipole        =-1.85378468D-17 0.00000000D+00-9.71977483D-01
 ***** Axes restored to original set *****
 -------------------------------------------------------------------
 Center     Atomic                   Forces (Hartrees/Bohr)
 Number     Number              X              Y              Z
 -------------------------------------------------------------------
      1        6          -0.000000000    0.000000000    0.000019397
      2        8          -0.000000000    0.000000000   -0.000082911
      3        1           0.000000000    0.000017828    0.000031757
      4        1           0.000000000   -0.000017828    0.000031757
 -------------------------------------------------------------------
 Cartesian Forces:  Max     0.000082911 RMS     0.000028727
 Leave Link  716 at Wed Jul 30 08:01:54 2025, MaxMem= 12348030976 cpu:               0.1 elap:               0.0
 (Enter /home/hhratchian/gaussian/gdv-20250101-j30+/gdv/l103.exe)

 GradGradGradGradGradGradGradGradGradGradGradGradGradGradGradGradGradGrad
 Berny optimization.
 FormGI is forming the generalized inverse of G from B-inverse, IUseBI=4.
 NTrRot=    -1 NTRed=     7 NAtoms=     4 NSkip=     1 NRank=     6 IsLin=F EigSml=7.4253D-01
 Internal  Forces:  Max     0.000082911 RMS     0.000039116
 Search for a local minimum.
 Step number   1 out of a maximum of   20
 All quantities printed in internal units (Hartrees-Bohrs-Radians)
 RMS Force = .39116D-04 SwitMx=.10000D-02 MixMth= 2
 Mixed Optimization -- En-DIIS/RFO-DIIS
 Second derivative matrix not updated -- first step.
 The second derivative matrix:
                          R1        R2        R3        A1        A2
           R1           0.90419
           R2           0.00000   0.33394
           R3           0.00000   0.00000   0.33394
           A1           0.00000   0.00000   0.00000   0.16000
           A2           0.00000   0.00000   0.00000   0.00000   0.16000
           A3           0.00000   0.00000   0.00000   0.00000   0.00000
           D1           0.00000   0.00000   0.00000   0.00000   0.00000
                          A3        D1
           A3           0.16000
           D1           0.00000   0.03919
 ITU=  0
     Eigenvalues ---    0.03919   0.16000   0.16000   0.33394   0.33394
     Eigenvalues ---    0.90419
 RFO step:  Lambda=-3.15563045D-08 EMin= 3.91925726D-02
 Linear search not attempted -- first point.
 GrdOpt: GIC=T ITstSp=  0 NP=   1 DidLin=F DidDIS=F IDoGRo=0 IDoRot=0
         ISwap=1 XLin= 0.000 DXMaxT= 0.300
 Iteration  1 RMS(Cart)=  0.00011884 RMS(Int)=  0.00000001
 Iteration  2 RMS(Cart)=  0.00000001 RMS(Int)=  0.00000000
 ClnCor:  largest displacement from symmetrization is 1.13D-14 for atom     1.
 Variable       Old X    -DE/DX   Delta X   Delta X   Delta X     New X
                                 (Linear)    (Quad)   (Total)
    R1        2.32741  -0.00008   0.00000  -0.00009  -0.00009   2.32731
    R2        2.08364  -0.00000   0.00000  -0.00001  -0.00001   2.08364
    R3        2.08364  -0.00000   0.00000  -0.00001  -0.00001   2.08364
    A1        2.13216  -0.00003   0.00000  -0.00016  -0.00016   2.13200
    A2        2.13216  -0.00003   0.00000  -0.00016  -0.00016   2.13200
    A3        2.01887   0.00005   0.00000   0.00032   0.00032   2.01919
    D1        3.14159   0.00000   0.00000   0.00000   0.00000   3.14159
         Item               Value     Threshold  Converged?
 Maximum Force            0.000083     0.000450     YES
 RMS     Force            0.000039     0.000300     YES
 Maximum Displacement     0.000209     0.001800     YES
 RMS     Displacement     0.000156     0.001200     YES
 Predicted change in Energy=-1.577815D-08
 Optimization completed.
    -- Stationary point found.
                           ----------------------------
                           !   Optimized Parameters   !
                           ! (Angstroms and Degrees)  !
 --------------------------                            --------------------------
 ! Name  Definition              Value          Derivative Info.                !
 --------------------------------------------------------------------------------
 ! R1    R(1,2)                  1.2316         -DE/DX =   -0.0001              !
 ! R2    R(1,3)                  1.1026         -DE/DX =    0.0                 !
 ! R3    R(1,4)                  1.1026         -DE/DX =    0.0                 !
 ! A1    A(2,1,3)              122.1636         -DE/DX =    0.0                 !
 ! A2    A(2,1,4)              122.1636         -DE/DX =    0.0                 !
 ! A3    A(3,1,4)              115.6728         -DE/DX =    0.0001              !
 ! D1    D(3,1,2,4)            180.0            -DE/DX =    0.0                 !
 --------------------------------------------------------------------------------
 Lowest energy point so far.  Saving SCF results.
 Largest change from initial coordinates is atom    3       0.000 Angstoms.
 GradGradGradGradGradGradGradGradGradGradGradGradGradGradGradGradGradGrad

 Leave Link  103 at Wed Jul 30 08:01:54 2025, MaxMem= 12348030976 cpu:               0.3 elap:               0.0
 (Enter /home/hhratchian/gaussian/gdv-20250101-j30+/gdv/l202.exe)
                          Input orientation:                          
 ---------------------------------------------------------------------
 Center     Atomic      Atomic             Coordinates (Angstroms)
 Number     Number       Type             X           Y           Z
 ---------------------------------------------------------------------
      1          6           0        0.000000    0.000000   -0.005920
      2          8           0       -0.000000   -0.000000    1.225690
      3          1           0        0.000000    0.933400   -0.592885
      4          1           0       -0.000000   -0.933400   -0.592885
 ---------------------------------------------------------------------
                    Distance matrix (angstroms):
                    1          2          3          4
     1  C    0.000000
     2  O    1.231610   0.000000
     3  H    1.102617   2.044126   0.000000
     4  H    1.102617   2.044126   1.866800   0.000000
 Stoichiometry    CH2O
 Framework group  C2V[C2(CO),SGV(H2)]
 Deg. of freedom     3
 Full point group                 C2V     NOp   4
 RotChk:  IX=0 Diff= 5.08D-16
 Largest Abelian subgroup         C2V     NOp   4
 Largest concise Abelian subgroup C2      NOp   2
                         Standard orientation:                         
 ---------------------------------------------------------------------
 Center     Atomic      Atomic             Coordinates (Angstroms)
 Number     Number       Type             X           Y           Z
 ---------------------------------------------------------------------
      1          6           0        0.000000   -0.000000   -0.542434
      2          8           0       -0.000000    0.000000    0.689176
      3          1           0       -0.000000    0.933400   -1.129399
      4          1           0       -0.000000   -0.933400   -1.129399
 ---------------------------------------------------------------------
 Rotational constants (GHZ):         287.7838827          37.3468926          33.0569561
 Leave Link  202 at Wed Jul 30 08:01:54 2025, MaxMem= 12348030976 cpu:               0.4 elap:               0.0
 (Enter /home/hhratchian/gaussian/gdv-20250101-j30+/gdv/local/l9999.exe)
 Unable to Open any file for archive entry.
 1\1\GINC-GNODE001\FOpt\RB3LYP\6-31G\C1H2O1\AABOUTAKA\30-Jul-2025\0\\#p
  B3LYP/6-31G opt freq\\CH2O neutral\\0,1\C,0.,0.,-0.00592\O,0.,0.,1.22
 569\H,0.,0.9334,-0.592885\H,0.,-0.9334,-0.592885\\Version=ES64L-GDVRev
 J.30+\State=1-A1\HF=-114.4611371\RMSD=4.668e-09\RMSF=2.873e-05\Dipole=
 0.,0.,-0.9719775\Quadrupole=0.2140961,0.1856806,-0.3997767,0.,0.,0.\PG
 =C02V [C2(C1O1),SGV(H2)]\\@
 The archive entry for this job was punched.


 IF GOD HAD MEANT MAN TO SEE THE SUN RISE, HE
 WOULD HAVE SCHEDULED IT FOR A LATER HOUR.
 Leave Link 9999 at Wed Jul 30 08:01:54 2025, MaxMem= 12348030976 cpu:               0.2 elap:               0.0
 Job cpu time:       0 days  0 hours  0 minutes 24.6 seconds.
 Elapsed time:       0 days  0 hours  0 minutes  4.9 seconds.
 File lengths (MBytes):  RWF=     38 Int=      0 D2E=      0 Chk=     18 Scr=      2
 Normal termination of Gaussian DV at Wed Jul 30 08:01:54 2025.
 (Enter /home/hhratchian/gaussian/gdv-20250101-j30+/gdv/local/l1.exe)
 Link1:  Proceeding to internal job step number  2.
 -----------------------------------------------------------------
 #P Geom=AllCheck Guess=TCheck SCRF=Check GenChk RB3LYP/6-31G Freq
 -----------------------------------------------------------------
 1/10=4,29=7,30=1,38=1,40=1/1,3;
 2/12=2/2;
 3/5=1,6=6,11=2,14=-4,25=1,30=1,70=2,71=2,74=-5,116=1,140=1/1,2,3;
 4/5=101/1;
 5/5=2,38=6,98=1/2;
 8/6=4,10=90,11=11/1;
 11/6=1,8=1,9=11,15=111,16=1/1,2,10;
 10/6=1/2;
 6/7=2,8=2,9=2,10=2,28=1/1;
 7/8=1,10=1,25=1/1,2,3,16;
 1/10=4,30=1/3;
 99//99;
 Leave Link    1 at Wed Jul 30 08:01:54 2025, MaxMem= 12348030976 cpu:               0.1 elap:               0.0
 (Enter /home/hhratchian/gaussian/gdv-20250101-j30+/gdv/local/l101.exe)
 
  Hrant - IAPOps =                         0
  Hrant - IAPOp1 =                         0
  Hrant - IAPOp2 =                         0
  Hrant - DoAP   =   F
 
 Structure from the checkpoint file:  "ch2o_neutral.chk"
 ------------
 CH2O neutral
 ------------
 Charge =     0 Multiplicity =     1
 Redundant internal coordinates found in file.  (GICs).
 C,0,0.,0.,-0.00592
 O,0,0.,0.,1.22569
 H,0,0.,0.9334,-0.592885
 H,0,0.,-0.9334,-0.592885
 
 Recover connectivity data from disk.
 Reading GIC definitions from chk.
 Skipping GIC derivative info from chk, if any.
 No input coordinate modifications requested.
 Forming B-matrix definitions.
 Forming B-matrix derivative definitions.
 ITRead=  0  0  0  0
 MicOpt= -1 -1 -1 -1
 NAtoms=      4 NQM=        4 NQMF=       0 NMMI=      0 NMMIF=      0
                NMic=       0 NMicF=      0.
                    Isotopes and Nuclear Properties:
 (Nuclear quadrupole moments (NQMom) in fm**2, nuclear magnetic moments (NMagM)
  in nuclear magnetons)

  Atom         1           2           3           4
 IAtWgt=          12          16           1           1
 AtmWgt=  12.0000000  15.9949146   1.0078250   1.0078250
 NucSpn=           0           0           1           1
 AtZEff=    3.600000    5.600000    1.000000    1.000000
 NQMom=    0.0000000   0.0000000   0.0000000   0.0000000
 NMagM=    0.0000000   0.0000000   2.7928460   2.7928460
 AtZNuc=   6.0000000   8.0000000   1.0000000   1.0000000
 Leave Link  101 at Wed Jul 30 08:01:54 2025, MaxMem= 12348030976 cpu:               0.5 elap:               0.3
 (Enter /home/hhratchian/gaussian/gdv-20250101-j30+/gdv/l103.exe)

 GradGradGradGradGradGradGradGradGradGradGradGradGradGradGradGradGradGrad
 Berny optimization.
 Initialization pass.
                           ----------------------------
                           !    Initial Parameters    !
                           ! (Angstroms and Degrees)  !
 --------------------------                            --------------------------
 ! Name  Definition              Value          Derivative Info.                !
 --------------------------------------------------------------------------------
 ! R1    R(1,2)                  1.2316         calculate D2E/DX2 analytically  !
 ! R2    R(1,3)                  1.1026         calculate D2E/DX2 analytically  !
 ! R3    R(1,4)                  1.1026         calculate D2E/DX2 analytically  !
 ! A1    A(2,1,3)              122.1636         calculate D2E/DX2 analytically  !
 ! A2    A(2,1,4)              122.1636         calculate D2E/DX2 analytically  !
 ! A3    A(3,1,4)              115.6728         calculate D2E/DX2 analytically  !
 ! D1    D(3,1,2,4)            180.0            calculate D2E/DX2 analytically  !
 --------------------------------------------------------------------------------
 Trust Radius=3.00D-01 FncErr=1.00D-07 GrdErr=1.00D-07 EigMax=2.50D+02 EigMin=1.00D-04
 Number of steps in this run=      2 maximum allowed number of steps=      2.
 GradGradGradGradGradGradGradGradGradGradGradGradGradGradGradGradGradGrad

 Leave Link  103 at Wed Jul 30 08:01:54 2025, MaxMem= 12348030976 cpu:               0.1 elap:               0.0
 (Enter /home/hhratchian/gaussian/gdv-20250101-j30+/gdv/l202.exe)
                          Input orientation:                          
 ---------------------------------------------------------------------
 Center     Atomic      Atomic             Coordinates (Angstroms)
 Number     Number       Type             X           Y           Z
 ---------------------------------------------------------------------
      1          6           0        0.000000   -0.000000   -0.005920
      2          8           0       -0.000000    0.000000    1.225690
      3          1           0        0.000000    0.933400   -0.592885
      4          1           0       -0.000000   -0.933400   -0.592885
 ---------------------------------------------------------------------
                    Distance matrix (angstroms):
                    1          2          3          4
     1  C    0.000000
     2  O    1.231610   0.000000
     3  H    1.102617   2.044126   0.000000
     4  H    1.102617   2.044126   1.866800   0.000000
 Stoichiometry    CH2O
 Framework group  C2V[C2(CO),SGV(H2)]
 Deg. of freedom     3
 Full point group                 C2V     NOp   4
 RotChk:  IX=0 Diff= 5.08D-16
 Largest Abelian subgroup         C2V     NOp   4
 Largest concise Abelian subgroup C2      NOp   2
                         Standard orientation:                         
 ---------------------------------------------------------------------
 Center     Atomic      Atomic             Coordinates (Angstroms)
 Number     Number       Type             X           Y           Z
 ---------------------------------------------------------------------
      1          6           0        0.000000   -0.000000   -0.542434
      2          8           0       -0.000000    0.000000    0.689176
      3          1           0       -0.000000    0.933400   -1.129399
      4          1           0       -0.000000   -0.933400   -1.129399
 ---------------------------------------------------------------------
 Rotational constants (GHZ):         287.7838827          37.3468926          33.0569561
 Leave Link  202 at Wed Jul 30 08:01:54 2025, MaxMem= 12348030976 cpu:               0.3 elap:               0.0
 (Enter /home/hhratchian/gaussian/gdv-20250101-j30+/gdv/local/l301.exe)
 Standard basis: 6-31G (6D, 7F)
 Ernie: Thresh=  0.10000D-02 Tol=  0.10000D-05 Strict=F.
 There are    12 symmetry adapted cartesian basis functions of A1  symmetry.
 There are     0 symmetry adapted cartesian basis functions of A2  symmetry.
 There are     4 symmetry adapted cartesian basis functions of B1  symmetry.
 There are     6 symmetry adapted cartesian basis functions of B2  symmetry.
 There are    12 symmetry adapted basis functions of A1  symmetry.
 There are     0 symmetry adapted basis functions of A2  symmetry.
 There are     4 symmetry adapted basis functions of B1  symmetry.
 There are     6 symmetry adapted basis functions of B2  symmetry.
    22 basis functions,    52 primitive gaussians,    22 cartesian basis functions
     8 alpha electrons        8 beta electrons
       nuclear repulsion energy        30.8084650328 Hartrees.
 IExCor=      4002 DFT=T Ex+Corr=B3LYP ScaHFX=  0.200000
 ScaDFX=  0.800000  0.720000  1.000000  0.810000  1.000000  0.000000
 ScaDFX=  0.000000  0.000000  0.000000  0.000000  0.000000  0.000000
 Grid=UltraFine IRanWt=     -1 IRanGd=            0 ICorTp=0 IEDCtl=  2004
 NAtoms=    4 NActive=    4 NUniq=    3 SFac= 1.78D+00 NAtFMM=   60 NAOKFM=F Big=F
 Integral buffers will be    131072 words long.
 Raffenetti 2 integral format.
 Two-electron integral symmetry is turned on.
 Leave Link  301 at Wed Jul 30 08:01:54 2025, MaxMem= 12348030976 cpu:               0.2 elap:               0.1
 (Enter /home/hhratchian/gaussian/gdv-20250101-j30+/gdv/l302.exe)
 NPDir=0 NMtPBC=     1 NCelOv=     1 NCel=       1 NClECP=     1 NCelD=      1
         NCelK=      1 NCelE2=     1 NClLst=     1 CellRange=     0.0.
 One-electron integrals computed using PRISM.
 One-electron integral symmetry used in STVInt
 NBasis=    22 RedAO= T EigKep=  2.41D-02  NBF=    12     0     4     6
 NBsUse=    22 1.00D-06 EigRej= -1.00D+00 NBFU=    12     0     4     6
 Precomputing XC quadrature grid using
 IXCGrd=   9 Grid=UltraFine IRanWt=          -1 IRanGd=           0 AccXCQ= 0.00D+00.
 Generated NRdTot=       0 NPtTot=       90134 NUsed=           0 NTot=          64
 NSgBfM=    22    22    22    22    22 MxSgAt=     4 MxSgA2=     4 SizInc=   0.000
 NMBTot=      826 MaxBatPerAtom=       82 MaxMicBPerAtom=      209 NBfPt=             1715876.
 Leave Link  302 at Wed Jul 30 08:01:55 2025, MaxMem= 12348030976 cpu:               2.1 elap:               0.1
 (Enter /home/hhratchian/gaussian/gdv-20250101-j30+/gdv/l303.exe)
 DipDrv:  MaxL=1.
 Leave Link  303 at Wed Jul 30 08:01:55 2025, MaxMem= 12348030976 cpu:               0.2 elap:               0.0
 (Enter /home/hhratchian/gaussian/gdv-20250101-j30+/gdv/l401.exe)
 Initial guess from the checkpoint file:  "ch2o_neutral.chk"
 B after Tr=     0.000000    0.000000    0.000000
         Rot=    1.000000   -0.000000    0.000000   -0.000000 Ang=   0.00 deg.
 AO Guess basis will be translated and rotated to current coordinates.
 JPrj=2 DoOrth=T DoCkMO=T.
 Initial guess orbital symmetries:
       Occupied  (A1) (A1) (A1) (A1) (B2) (A1) (B1) (B2)
       Virtual   (B1) (A1) (B2) (A1) (B1) (B2) (A1) (A1) (B2) (A1)
                 (A1) (B1) (B2) (A1)
 The electronic state of the initial guess is 1-A1.
 Leave Link  401 at Wed Jul 30 08:01:55 2025, MaxMem= 12348030976 cpu:               0.4 elap:               0.1
 (Enter /home/hhratchian/gaussian/gdv-20250101-j30+/gdv/local/l502.exe)
 Keep R1 ints in memory in symmetry-blocked form, NReq=48443327.
 FoFCou: FMM=F IPFlag=           0 FMFlag=           0 FMFlg1=           0
         NFxFlg=           0 DoJE=F BraDBF=F KetDBF=F FulRan=T
         wScrn=  0.000000 ICntrl=       600 IOpCl=  0 I1Cent=           0 NGrid=           0
         NMat0=    1 NMatS0=    253 NMatT0=    0 NMatD0=    1 NMtDS0=    0 NMtDT0=    0
 Petite list used in FoFCou.
 Closed shell SCF:
 Using DIIS extrapolation, IDIIS=  1040.
 NGot= 12348030976 LenX= 12348016719 LenY= 12348015794
 Requested convergence on RMS density matrix=1.00D-08 within 128 cycles.
 Requested convergence on MAX density matrix=1.00D-06.
 Requested convergence on             energy=1.00D-06.
 No special actions if energy rises.
 
  Hrant - CycOpn.
 

 Cycle   1  Pass 1  IDiag  1:
 E= -114.461137095620    
 DIIS: error= 1.79D-09 at cycle   1 NSaved=   1.
 NSaved= 1 IEnMin= 1 EnMin= -114.461137095620     IErMin= 1 ErrMin= 1.79D-09
 ErrMax= 1.79D-09  0.00D+00 EMaxC= 1.00D-01 BMatC= 4.26D-17 BMatP= 4.26D-17
 Rises=F IDIUse=1 WtCom= 1.00D+00 WtEn= 0.00D+00
 Coeff-Com:  0.100D+01
 Coeff:      0.100D+01
 Gap=     0.214 Goal=   None    Shift=    0.000
 RMSDP=9.31D-10 MaxDP=5.96D-09              OVMax= 9.55D-09

 SCF Done:  E(RB3LYP) =  -114.461137096     A.U. after    1 cycles
            NFock=  1  Conv=0.93D-09     -V/T= 2.0057
 KE=         113.812495 PE=        -330.199128 EE=          71.117030
 Leave Link  502 at Wed Jul 30 08:01:55 2025, MaxMem= 12348030976 cpu:               2.4 elap:               0.1
 (Enter /home/hhratchian/gaussian/gdv-20250101-j30+/gdv/l801.exe)
 DoSCS=F DFT=T ScalE2(SS,OS)=  1.000000  1.000000
 Range of M.O.s used for correlation:     1    22
 NBasis=    22 NAE=     8 NBE=     8 NFC=     0 NFV=     0
 NROrb=     22 NOA=     8 NOB=     8 NVA=    14 NVB=    14
 Leave Link  801 at Wed Jul 30 08:01:55 2025, MaxMem= 12348030976 cpu:               0.2 elap:               0.0
 (Enter /home/hhratchian/gaussian/gdv-20250101-j30+/gdv/l1101.exe)
 Using compressed storage, NAtomX=     4.
 Will process      5 centers per pass.
 Leave Link 1101 at Wed Jul 30 08:01:55 2025, MaxMem= 12348030976 cpu:               1.8 elap:               0.1
 (Enter /home/hhratchian/gaussian/gdv-20250101-j30+/gdv/l1102.exe)
 Symmetrizing basis deriv contribution to polar:
 IMax=3 JMax=2 DiffMx= 0.00D+00
 Leave Link 1102 at Wed Jul 30 08:01:55 2025, MaxMem= 12348030976 cpu:               0.2 elap:               0.0
 (Enter /home/hhratchian/gaussian/gdv-20250101-j30+/gdv/l1110.exe)
 Forming Gx(P) for the SCF density, NAtomX=     4.
 Integral derivatives from FoFJK, PRISM(SPDF).
 Do as many integral derivatives as possible in FoFJK.
 G2DrvN: MDV=   12348030386.
 G2DrvN: will do     5 centers at a time, making    1 passes.
 Calling FoFCou, ICntrl=  3107 FMM=F I1Cent=   0 AccDes= 0.00D+00.
 FoFJK:  IHMeth= 1 ICntrl=    3107 DoSepK=F KAlg= 0 I1Cent=           0 FoldK=F
 IRaf=         0 NMat=       1 IRICut=       1 DoRegI=T DoRafI=F ISym2E= 1 IDoP0=0 IntGTp=1.
 FoFCou: FMM=F IPFlag=           0 FMFlag=      100000 FMFlg1=           0
         NFxFlg=           0 DoJE=F BraDBF=F KetDBF=F FulRan=T
         wScrn=  0.000000 ICntrl=      3107 IOpCl=  0 I1Cent=           0 NGrid=           0
         NMat0=    1 NMatS0=      1 NMatT0=    0 NMatD0=    1 NMtDS0=    0 NMtDT0=    0
 Petite list used in FoFCou.
 End of G2Drv FD prop file    721 does not exist.
 End of G2Drv FD prop file    722 does not exist.
 End of G2Drv FD prop file    788 does not exist.
 End of G2Drv FD prop file    804 does not exist.
 Leave Link 1110 at Wed Jul 30 08:01:55 2025, MaxMem= 12348030976 cpu:               3.3 elap:               0.1
 (Enter /home/hhratchian/gaussian/gdv-20250101-j30+/gdv/l1002.exe)
 Minotr:  Closed shell wavefunction.
          IDoAtm=1111
          Direct CPHF calculation.
          Differentiating once with respect to electric field.
                with respect to dipole field.
          Differentiating once with respect to nuclear coordinates.
          Using symmetry in CPHF.
          Requested convergence is 1.0D-08 RMS, and 1.0D-07 maximum.
          Secondary convergence is 1.0D-12 RMS, and 1.0D-12 maximum.
          NewPWx=T KeepS1=F KeepF1=F KeepIn=T MapXYZ=F SortEE=F KeepMc=T.
         1320 words used for storage of precomputed grid.
 Keep R1 ints in memory in symmetry-blocked form, NReq=48260393.
 FoFCou: FMM=F IPFlag=           0 FMFlag=           0 FMFlg1=           0
         NFxFlg=           0 DoJE=F BraDBF=F KetDBF=F FulRan=T
         wScrn=  0.000000 ICntrl=       600 IOpCl=  0 I1Cent=           0 NGrid=           0
         NMat0=    1 NMatS0=    253 NMatT0=    0 NMatD0=    1 NMtDS0=    0 NMtDT0=    0
 Petite list used in FoFCou.
          MDV=   12348030976 using Grid=Medium.
          Solving linear equations simultaneously, MaxMat=       0.
          There are    12 degrees of freedom in the 1st order CPHF.  IDoFFX=4 NUNeed=    12.
     12 vectors produced by pass  0 Test12= 9.33D-16 8.33D-09 XBig12= 1.96D+01 3.48D+00.
 AX will form    12 AO Fock derivatives at one time.
     12 vectors produced by pass  1 Test12= 9.33D-16 8.33D-09 XBig12= 5.09D+00 8.31D-01.
     12 vectors produced by pass  2 Test12= 9.33D-16 8.33D-09 XBig12= 2.51D-02 6.93D-02.
     12 vectors produced by pass  3 Test12= 9.33D-16 8.33D-09 XBig12= 3.37D-05 2.65D-03.
     11 vectors produced by pass  4 Test12= 9.33D-16 8.33D-09 XBig12= 1.84D-08 5.20D-05.
      4 vectors produced by pass  5 Test12= 9.33D-16 8.33D-09 XBig12= 4.21D-12 9.64D-07.
      1 vectors produced by pass  6 Test12= 9.33D-16 8.33D-09 XBig12= 3.02D-15 2.43D-08.
 InvSVY:  IOpt=1 It=  1 EMax= 4.83D-16
 Solved reduced A of dimension    64 with    12 vectors.
 FullF1:  Do perturbations      1 to      12.
 Isotropic polarizability for W=    0.000000       12.54 Bohr**3.
 End of Minotr FD prop file    721 does not exist.
 End of Minotr FD prop file    722 does not exist.
 End of Minotr FD prop file    788 does not exist.
 End of Minotr FD prop file    804 does not exist.
 Leave Link 1002 at Wed Jul 30 08:01:58 2025, MaxMem= 12348030976 cpu:             168.3 elap:               3.1
 (Enter /home/hhratchian/gaussian/gdv-20250101-j30+/gdv/l601.exe)
 Copying SCF densities to generalized density rwf, IOpCl= 0 IROHF=0.
 
 **********************************************************************
 
               Population analysis using the SCF Density.
 
 **********************************************************************
 
 Orbital symmetries:
       Occupied  (A1) (A1) (A1) (A1) (B2) (A1) (B1) (B2)
       Virtual   (B1) (A1) (B2) (A1) (B1) (B2) (A1) (A1) (B2) (A1)
                 (A1) (B1) (B2) (A1)
 The electronic state is 1-A1.
 Alpha  occ. eigenvalues --      -19.17475     -10.29213      -1.07384      -0.64570      -0.50427
 Alpha  occ. eigenvalues --       -0.44404      -0.39958      -0.27097
 Alpha virt. eigenvalues --       -0.05653       0.09862       0.17344       0.21128       0.50685
 Alpha virt. eigenvalues --        0.62127       0.63061       0.70790       0.85730       0.87900
 Alpha virt. eigenvalues --        0.95225       0.95516       1.10349       1.59398
          Condensed to atoms (all electrons):
               1          2          3          4
     1  C    4.800956   0.465730   0.319729   0.319729
     2  O    0.465730   7.996662  -0.060545  -0.060545
     3  H    0.319729  -0.060545   0.712752  -0.095659
     4  H    0.319729  -0.060545  -0.095659   0.712752
 Mulliken charges:
               1
     1  C    0.093856
     2  O   -0.341302
     3  H    0.123723
     4  H    0.123723
 Sum of Mulliken charges=   0.00000
 Mulliken charges with hydrogens summed into heavy atoms:
               1
     1  C    0.341302
     2  O   -0.341302
 APT charges:
               1
     1  C    0.610601
     2  O   -0.506909
     3  H   -0.051846
     4  H   -0.051846
 Sum of APT charges=  -0.00000
 APT charges with hydrogens summed into heavy atoms:
               1
     1  C    0.506909
     2  O   -0.506909
 Electronic spatial extent (au):  <R**2>=             61.5260
 Charge=             -0.0000 electrons
 Dipole moment (field-independent basis, Debye):
    X=             -0.0000    Y=             -0.0000    Z=             -2.4705  Tot=              2.4705
 Quadrupole moment (field-independent basis, Debye-Ang):
   XX=            -11.5125   YY=            -11.5507   ZZ=            -12.3381
   XY=              0.0000   XZ=              0.0000   YZ=              0.0000
 Traceless Quadrupole moment (field-independent basis, Debye-Ang):
   XX=              0.2880   YY=              0.2497   ZZ=             -0.5377
   XY=              0.0000   XZ=              0.0000   YZ=              0.0000
 Octapole moment (field-independent basis, Debye-Ang**2):
  XXX=              0.0000  YYY=             -0.0000  ZZZ=              0.5760  XYY=              0.0000
  XXY=              0.0000  XXZ=              0.9509  XZZ=              0.0000  YZZ=              0.0000
  YYZ=             -0.0789  XYZ=             -0.0000
 Hexadecapole moment (field-independent basis, Debye-Ang**3):
 XXXX=             -9.3718 YYYY=            -17.8941 ZZZZ=            -45.4751 XXXY=             -0.0000
 XXXZ=             -0.0000 YYYX=             -0.0000 YYYZ=             -0.0000 ZZZX=             -0.0000
 ZZZY=             -0.0000 XXYY=             -4.7415 XXZZ=             -9.1418 YYZZ=            -10.3144
 XXYZ=             -0.0000 YYXZ=             -0.0000 ZZXY=             -0.0000
 N-N=          30.808465 E-N=        -330.199128  KE=         113.812495
 Symmetry A1   KE=         103.429797
 Symmetry A2   KE=           0.000000
 Symmetry B1   KE=           3.601408
 Symmetry B2   KE=           6.781290
 No NMR shielding tensors so no spin-rotation constants.
 Leave Link  601 at Wed Jul 30 08:02:01 2025, MaxMem= 12348030976 cpu:               2.3 elap:               0.1
 (Enter /home/hhratchian/gaussian/gdv-20250101-j30+/gdv/l701.exe)
 ... and contract with generalized density number  0.
 Compute integral second derivatives.
 Leave Link  701 at Wed Jul 30 08:02:02 2025, MaxMem= 12348030976 cpu:               2.5 elap:               0.1
 (Enter /home/hhratchian/gaussian/gdv-20250101-j30+/gdv/l702.exe)
 L702 exits ... SP integral derivatives will be done elsewhere.
 Leave Link  702 at Wed Jul 30 08:02:02 2025, MaxMem= 12348030976 cpu:               0.2 elap:               0.0
 (Enter /home/hhratchian/gaussian/gdv-20250101-j30+/gdv/l703.exe)
 Integral derivatives from FoFJK, PRISM(SPDF).
 Compute integral second derivatives, UseDBF=F ICtDFT=           0.
 Calling FoFJK, ICntrl=    100127 FMM=F ISym2X=1 I1Cent= 0 IOpClX= 0 NMat=1 NMatS=1 NMatT=0.
 FoFJK:  IHMeth= 1 ICntrl=  100127 DoSepK=F KAlg= 0 I1Cent=           0 FoldK=F
 IRaf=         0 NMat=       1 IRICut=       1 DoRegI=T DoRafI=F ISym2E= 1 IDoP0=0 IntGTp=1.
 FoFCou: FMM=F IPFlag=           0 FMFlag=      100000 FMFlg1=         800
         NFxFlg=           0 DoJE=F BraDBF=F KetDBF=F FulRan=T
         wScrn=  0.000000 ICntrl=    100127 IOpCl=  0 I1Cent=           0 NGrid=           0
         NMat0=    1 NMatS0=      1 NMatT0=    0 NMatD0=    1 NMtDS0=    0 NMtDT0=    0
 Petite list used in FoFCou.
 Leave Link  703 at Wed Jul 30 08:02:02 2025, MaxMem= 12348030976 cpu:               6.2 elap:               0.2
 (Enter /home/hhratchian/gaussian/gdv-20250101-j30+/gdv/l716.exe)
 Dipole        =-1.85378466D-17-6.57112371D-19-9.71977555D-01
 Polarizability= 5.86859141D+00 7.98033614D-16 1.28024724D+01
                 5.44265051D-16 1.66533454D-12 1.89357099D+01
 Full mass-weighted force constant matrix:
 Low frequencies ---   -9.2696   -0.0012   -0.0011    0.0008   11.6330   12.5735
 Low frequencies --- 1203.2673 1273.8139 1560.3184
 Diagonal vibrational polarizability:
        0.1230322       0.5877895       0.8488652
 Harmonic frequencies (cm**-1), IR intensities (KM/Mole), Raman scattering
 activities (A**4/AMU), depolarization ratios for plane and unpolarized
 incident light, reduced masses (AMU), force constants (mDyne/A),
 and normal coordinates:
                      1                      2                      3
                     B1                     B2                     A1
 Frequencies --   1203.2673              1273.8139              1560.3184
 Red. masses --      1.3614                 1.3344                 1.2896
 Frc consts  --      1.1614                 1.2757                 1.8498
 IR Inten    --      6.6193                 9.3786                17.4686
  Atom  AN      X      Y      Z        X      Y      Z        X      Y      Z
     1   6    -0.17   0.00  -0.00    -0.00  -0.15   0.00    -0.00   0.00   0.06
     2   8     0.04  -0.00  -0.00     0.00   0.08  -0.00     0.00  -0.00  -0.13
     3   1     0.70  -0.00  -0.00     0.00   0.26   0.65     0.00   0.32   0.62
     4   1     0.70   0.00   0.00     0.00   0.26  -0.65     0.00  -0.32   0.62
                      4                      5                      6
                     A1                     A1                     B2
 Frequencies --   1748.2054              2963.2811              3034.4618
 Red. masses --      3.7504                 1.0472                 1.1180
 Frc consts  --      6.7533                 5.4177                 6.0655
 IR Inten    --     60.9116                38.9673               147.8965
  Atom  AN      X      Y      Z        X      Y      Z        X      Y      Z
     1   6     0.00   0.00   0.40    -0.00  -0.00   0.06     0.00  -0.10  -0.00
     2   8    -0.00  -0.00  -0.25     0.00  -0.00  -0.00    -0.00   0.00   0.00
     3   1    -0.00  -0.47  -0.41     0.00   0.61  -0.35    -0.00   0.60  -0.37
     4   1    -0.00   0.47  -0.41     0.00  -0.61  -0.35    -0.00   0.60   0.37

 -------------------
 - Thermochemistry -
 -------------------
 Temperature 298.150 Kelvin.  Pressure 1.00000 Atm.
 Atom     1 has atomic number  6 and mass  12.00000
 Atom     2 has atomic number  8 and mass  15.99491
 Atom     3 has atomic number  1 and mass   1.00783
 Atom     4 has atomic number  1 and mass   1.00783
 Molecular mass:    30.01056 amu.
 Principal axes and moments of inertia in atomic units:
                                 1                 2                 3
     Eigenvalues --            6.271168         48.323731         54.594900
           X                   0.000000         -0.000000          1.000000
           Y                   0.000000          1.000000          0.000000
           Z                   1.000000         -0.000000         -0.000000
 This molecule is an asymmetric top.
 Rotational symmetry number  2.
 Rotational temperatures (Kelvin)     13.81145     1.79237     1.58648
 Rotational constants (GHZ):         287.78388    37.34689    33.05696
 Zero-point vibrational energy      70480.1 (Joules/Mol)
                                   16.84514 (Kcal/Mol)
 Vibrational temperatures:   1731.23  1832.73  2244.95  2515.28  4263.50
          (Kelvin)           4365.91
 
 Zero-point correction=                           0.026844 (Hartree/Particle)
 Thermal correction to Energy=                    0.029712
 Thermal correction to Enthalpy=                  0.030656
 Thermal correction to Gibbs Free Energy=         0.005810
 Sum of electronic and zero-point Energies=           -114.434293
 Sum of electronic and thermal Energies=              -114.431426
 Sum of electronic and thermal Enthalpies=            -114.430481
 Sum of electronic and thermal Free Energies=         -114.455327
 
                     E (Thermal)             CV                S
                      KCal/Mol        Cal/Mol-Kelvin    Cal/Mol-Kelvin
 Total                   18.644              6.417             52.292
 Electronic               0.000              0.000              0.000
 Translational            0.889              2.981             36.130
 Rotational               0.889              2.981             16.077
 Vibrational             16.867              0.456              0.084
                       Q            Log10(Q)             Ln(Q)
 Total Bot       0.212570D-02         -2.672497         -6.153653
 Total V=0       0.473236D+10          9.675078         22.277690
 Vib (Bot)       0.451847D-12        -12.345009        -28.425433
 Vib (V=0)       0.100593D+01          0.002566          0.005909
 Electronic      0.100000D+01          0.000000          0.000000
 Translational   0.646197D+07          6.810365         15.681445
 Rotational      0.728025D+03          2.862146          6.590335
 
                                                             CH2O neutral
                                                             IR Spectrum
 
     3  2                                                  1       1           1  1                                                  
     0  9                                                  7       5           2  2                                                  
     3  6                                                  4       6           7  0                                                  
     4  3                                                  8       0           4  3                                                  
 
     X  X                                                  X       X           X  X                                                  
     X  X                                                  X       X                                                                 
     X  X                                                  X                                                                         
     X  X                                                  X                                                                         
     X  X                                                  X                                                                         
     X                                                     X                                                                         
     X                                                     X                                                                         
     X                                                     X                                                                         
     X                                                                                                                               
     X                                                                                                                               
     X                                                                                                                               
     X                                                                                                                               
     X                                                                                                                               
     X                                                                                                                               
     X                                                                                                                               
     X                                                                                                                               
     X                                                                                                                               
     X                                                                                                                               
     X                                                                                                                               
     X                                                                                                                               
 
 ***** Axes restored to original set *****
 -------------------------------------------------------------------
 Center     Atomic                   Forces (Hartrees/Bohr)
 Number     Number              X              Y              Z
 -------------------------------------------------------------------
      1        6          -0.000000000   -0.000000000    0.000019394
      2        8          -0.000000000   -0.000000000   -0.000082911
      3        1           0.000000000    0.000017828    0.000031759
      4        1           0.000000000   -0.000017828    0.000031759
 -------------------------------------------------------------------
 Cartesian Forces:  Max     0.000082911 RMS     0.000028727
 Force constants in Cartesian coordinates: 
                1             2             3             4             5 
      1  0.172610D+00
      2  0.000000D+00  0.592693D+00
      3  0.000000D+00  0.000000D+00  0.928994D+00
      4 -0.557129D-01  0.000000D+00  0.000000D+00  0.180069D-01
      5  0.000000D+00 -0.100587D+00  0.000000D+00  0.000000D+00  0.705605D-01
      6  0.000000D+00  0.000000D+00 -0.712465D+00  0.000000D+00  0.000000D+00
      7 -0.584483D-01  0.000000D+00  0.000000D+00  0.188530D-01  0.000000D+00
      8  0.000000D+00 -0.246053D+00  0.869128D-01  0.000000D+00  0.150130D-01
      9  0.000000D+00  0.883683D-01 -0.108264D+00  0.000000D+00  0.370842D-01
     10 -0.584483D-01  0.000000D+00  0.000000D+00  0.188530D-01  0.000000D+00
     11  0.000000D+00 -0.246053D+00 -0.869128D-01  0.000000D+00  0.150130D-01
     12  0.000000D+00 -0.883683D-01 -0.108264D+00  0.000000D+00 -0.370842D-01
                6             7             8             9            10 
      6  0.790006D+00
      7  0.000000D+00  0.197960D-01
      8  0.113292D-01  0.000000D+00  0.250265D+00
      9 -0.387703D-01  0.000000D+00 -0.111847D+00  0.137425D+00
     10  0.000000D+00  0.197993D-01  0.000000D+00  0.000000D+00  0.197960D-01
     11 -0.113292D-01  0.000000D+00 -0.192246D-01 -0.136052D-01  0.000000D+00
     12 -0.387703D-01  0.000000D+00  0.136052D-01  0.960965D-02  0.000000D+00
               11            12 
     11  0.250265D+00
     12  0.111847D+00  0.137425D+00
 FormGI is forming the generalized inverse of G from B-inverse, IUseBI=4.
 NTrRot=    -1 NTRed=     7 NAtoms=     4 NSkip=     1 NRank=     6 IsLin=F EigSml=7.4253D-01
 Force constants in internal coordinates: 
                1             2             3             4             5 
      1  0.790006D+00
      2  0.302295D-01  0.319094D+00
      3  0.302295D-01  0.423773D-02  0.319094D+00
      4  0.186065D-01  0.380450D-02 -0.125587D-01  0.117980D+00
      5  0.186065D-01 -0.125587D-01  0.380450D-02 -0.730251D-01  0.117980D+00
      6 -0.372129D-01  0.875416D-02  0.875416D-02 -0.449553D-01 -0.449553D-01
      7  0.000000D+00  0.000000D+00  0.000000D+00  0.000000D+00  0.000000D+00
                6             7 
      6  0.899106D-01
      7  0.000000D+00  0.615645D-01
 Leave Link  716 at Wed Jul 30 08:02:02 2025, MaxMem= 12348030976 cpu:               0.3 elap:               0.0
 (Enter /home/hhratchian/gaussian/gdv-20250101-j30+/gdv/l103.exe)

 GradGradGradGradGradGradGradGradGradGradGradGradGradGradGradGradGradGrad
 Berny optimization.
 Internal  Forces:  Max     0.000082911 RMS     0.000039116
 Search for a local minimum.
 Step number   1 out of a maximum of    2
 All quantities printed in internal units (Hartrees-Bohrs-Radians)
 Second derivative matrix not updated -- analytic derivatives used.
 The second derivative matrix:
                          R1        R2        R3        A1        A2
           R1           0.79001
           R2           0.03023   0.31909
           R3           0.03023   0.00424   0.31909
           A1           0.01861   0.00380  -0.01256   0.11798
           A2           0.01861  -0.01256   0.00380  -0.07303   0.11798
           A3          -0.03721   0.00875   0.00875  -0.04496  -0.04496
           D1           0.00000  -0.00000   0.00000   0.00000   0.00000
                          A3        D1
           A3           0.08991
           D1          -0.00000   0.06156
 ITU=  0
     Eigenvalues ---    0.06156   0.13000   0.18888   0.31698   0.32139
     Eigenvalues ---    0.79682
 Angle between quadratic step and forces=  42.94 degrees.
 Linear search not attempted -- first point.
 GrdOpt: GIC=T ITstSp=  0 NP=   1 DidLin=F DidDIS=F IDoGRo=0 IDoRot=0
         ISwap=1 XLin= 0.000 DXMaxT= 0.300
 Iteration  1 RMS(Cart)=  0.00012943 RMS(Int)=  0.00000002
 Iteration  2 RMS(Cart)=  0.00000001 RMS(Int)=  0.00000000
 ClnCor:  largest displacement from symmetrization is 4.69D-15 for atom     1.
 Variable       Old X    -DE/DX   Delta X   Delta X   Delta X     New X
                                 (Linear)    (Quad)   (Total)
    R1        2.32741  -0.00008   0.00000  -0.00008  -0.00008   2.32733
    R2        2.08364  -0.00000   0.00000  -0.00001  -0.00001   2.08363
    R3        2.08364  -0.00000   0.00000  -0.00001  -0.00001   2.08363
    A1        2.13216  -0.00003   0.00000  -0.00018  -0.00018   2.13198
    A2        2.13216  -0.00003   0.00000  -0.00018  -0.00018   2.13198
    A3        2.01887   0.00005   0.00000   0.00035   0.00035   2.01923
    D1        3.14159   0.00000   0.00000   0.00000   0.00000   3.14159
         Item               Value     Threshold  Converged?
 Maximum Force            0.000083     0.000450     YES
 RMS     Force            0.000039     0.000300     YES
 Maximum Displacement     0.000219     0.001800     YES
 RMS     Displacement     0.000169     0.001200     YES
 Predicted change in Energy=-1.673010D-08
 Optimization completed.
    -- Stationary point found.
                           ----------------------------
                           !   Optimized Parameters   !
                           ! (Angstroms and Degrees)  !
 --------------------------                            --------------------------
 ! Name  Definition              Value          Derivative Info.                !
 --------------------------------------------------------------------------------
 ! R1    R(1,2)                  1.2316         -DE/DX =   -0.0001              !
 ! R2    R(1,3)                  1.1026         -DE/DX =    0.0                 !
 ! R3    R(1,4)                  1.1026         -DE/DX =    0.0                 !
 ! A1    A(2,1,3)              122.1636         -DE/DX =    0.0                 !
 ! A2    A(2,1,4)              122.1636         -DE/DX =    0.0                 !
 ! A3    A(3,1,4)              115.6728         -DE/DX =    0.0001              !
 ! D1    D(3,1,2,4)            180.0            -DE/DX =    0.0                 !
 --------------------------------------------------------------------------------
 GradGradGradGradGradGradGradGradGradGradGradGradGradGradGradGradGradGrad

 Leave Link  103 at Wed Jul 30 08:02:02 2025, MaxMem= 12348030976 cpu:               0.2 elap:               0.0
 (Enter /home/hhratchian/gaussian/gdv-20250101-j30+/gdv/local/l9999.exe)

 ----------------------------------------------------------------------

 Electric dipole moment (input orientation):
 (Debye = 10**-18 statcoulomb cm , SI units = C m)
                  (au)            (Debye)         (10**-30 SI)
   Tot        0.971978D+00      0.247052D+01      0.824077D+01
   x          0.000000D+00      0.000000D+00      0.000000D+00
   y          0.000000D+00      0.000000D+00      0.000000D+00
   z         -0.971978D+00     -0.247052D+01     -0.824077D+01

 Dipole polarizability, Alpha (input orientation).
 (esu units = cm**3 , SI units = C**2 m**2 J**-1)
 Alpha(0;0):
               (au)            (10**-24 esu)      (10**-40 SI)
   iso        0.125356D+02      0.185758D+01      0.206684D+01
   aniso      0.113235D+02      0.167797D+01      0.186700D+01
   xx         0.586859D+01      0.869636D+00      0.967600D+00
   yx         0.000000D+00      0.000000D+00      0.000000D+00
   yy         0.128025D+02      0.189713D+01      0.211084D+01
   zx         0.000000D+00      0.000000D+00      0.000000D+00
   zy         0.000000D+00      0.000000D+00      0.000000D+00
   zz         0.189357D+02      0.280598D+01      0.312208D+01

 ----------------------------------------------------------------------

 Dipole orientation:
     6          0.00000000          0.00000000          0.01118718
     8          0.00000000          0.00000000         -2.31621841
     1          0.00000000         -1.76387036          1.12039027
     1         -0.00000000          1.76387036          1.12039027

 Electric dipole moment (dipole orientation):
 (Debye = 10**-18 statcoulomb cm , SI units = C m)
                  (au)            (Debye)         (10**-30 SI)
   Tot        0.971978D+00      0.247052D+01      0.824077D+01
   x          0.000000D+00      0.000000D+00      0.000000D+00
   y          0.000000D+00      0.000000D+00      0.000000D+00
   z          0.971978D+00      0.247052D+01      0.824077D+01

 Dipole polarizability, Alpha (dipole orientation).
 (esu units = cm**3 , SI units = C**2 m**2 J**-1)
 Alpha(0;0):
               (au)            (10**-24 esu)      (10**-40 SI)
   iso        0.125356D+02      0.185758D+01      0.206684D+01
   aniso      0.113235D+02      0.167797D+01      0.186700D+01
   xx         0.586859D+01      0.869636D+00      0.967600D+00
   yx         0.000000D+00      0.000000D+00      0.000000D+00
   yy         0.128025D+02      0.189713D+01      0.211084D+01
   zx         0.000000D+00      0.000000D+00      0.000000D+00
   zy         0.000000D+00      0.000000D+00      0.000000D+00
   zz         0.189357D+02      0.280598D+01      0.312208D+01

 ----------------------------------------------------------------------
 Unable to Open any file for archive entry.
 1\1\GINC-GNODE001\Freq\RB3LYP\6-31G\C1H2O1\AABOUTAKA\30-Jul-2025\0\\#P
  Geom=AllCheck Guess=TCheck SCRF=Check GenChk RB3LYP/6-31G Freq\\CH2O 
 neutral\\0,1\C,0.,0.,-0.00592\O,0.,0.,1.22569\H,0.,0.9334,-0.592885\H,
 0.,-0.9334,-0.592885\\Version=ES64L-GDVRevJ.30+\State=1-A1\HF=-114.461
 1371\RMSD=9.313e-10\RMSF=2.873e-05\ZeroPoint=0.0268444\Thermal=0.02971
 15\ETot=-114.4314256\HTot=-114.4304814\GTot=-114.4553269\Dipole=0.,0.,
 -0.9719776\DipoleDeriv=0.135158,0.,0.,0.,0.8412427,0.,0.,0.,0.8554032,
 -0.3264522,0.,0.,0.,-0.4360978,0.,0.,0.,-0.7581778,0.0956471,0.,0.,0.,
 -0.2025724,0.0972461,0.,0.1151948,-0.0486127,0.0956471,0.,0.,0.,-0.202
 5724,-0.0972461,0.,-0.1151948,-0.0486127\Polar=5.8685914,0.,12.8024724
 ,0.,0.,18.9357099\Quadrupole=0.2140961,0.1856806,-0.3997768,0.,0.,0.\P
 G=C02V [C2(C1O1),SGV(H2)]\NImag=0\\0.17260960,0.,0.59269281,0.,0.,0.92
 899358,-0.05571293,0.,0.,0.01800685,0.,-0.10058654,0.,0.,0.07056048,0.
 ,0.,-0.71246515,0.,0.,0.79000575,-0.05844834,0.,0.,0.01885304,0.,0.,0.
 01979601,0.,-0.24605313,0.08691280,0.,0.01501303,0.01132923,0.,0.25026
 468,0.,0.08836834,-0.10826421,0.,0.03708416,-0.03877030,0.,-0.11184727
 ,0.13742487,-0.05844834,0.,0.,0.01885304,0.,0.,0.01979929,0.,0.,0.0197
 9601,0.,-0.24605313,-0.08691280,0.,0.01501303,-0.01132923,0.,-0.019224
 58,-0.01360524,0.,0.25026468,0.,-0.08836834,-0.10826421,0.,-0.03708416
 ,-0.03877030,0.,0.01360524,0.00960965,0.,0.11184727,0.13742487\\0.,0.,
 -0.00001939,0.,0.,0.00008291,0.,-0.00001783,-0.00003176,0.,0.00001783,
 -0.00003176\\\@
 The archive entry for this job was punched.


 THE ONLY DIFFERENCE BETWEEN ECCENTRICS AND JOGGERS
 IS THAT JOGGERS WEAR SWEATBANDS WHEN THEY RUN IN THE RAIN.
 Job cpu time:       0 days  0 hours  3 minutes 15.7 seconds.
 Elapsed time:       0 days  0 hours  0 minutes  4.6 seconds.
 File lengths (MBytes):  RWF=     38 Int=      0 D2E=      0 Chk=     18 Scr=      2
 Normal termination of Gaussian DV at Wed Jul 30 08:02:02 2025.
