 Set GAUSS_MDEF to "92GB".
 Set GAUSS_PDEF to "56".
 Entering Gaussian System, Link 0=gdv
 Initial command:
 /home/hhratchian/gaussian/gdv-20250101-j30+/gdv/local/l1.exe "/scratch/aaboutaka/1561492/Gau-390206.inp" -scrdir="/scratch/aaboutaka/1561492/"
 Default is to use a total of  56 processors:
                               56 via shared-memory
                                1 via Linda
 Entering Link 1 = /home/hhratchian/gaussian/gdv-20250101-j30+/gdv/local/l1.exe PID=    390207.
  
 Copyright (c) 1988-2024, Gaussian, Inc.  All Rights Reserved.
  
 This is the private, development version of
 the Gaussian(R) DV system of programs. It is based on
 the Gaussian(R) 16 system (copyright 2016, Gaussian, Inc.),
 the Gaussian(R) 09 system (copyright 2009, Gaussian, Inc.),
 the Gaussian(R) 03 system (copyright 2003, Gaussian, Inc.),
 the Gaussian(R) 98 system (copyright 1998, Gaussian, Inc.),
 the Gaussian(R) 94 system (copyright 1995, Gaussian, Inc.),
 the Gaussian 92(TM) system (copyright 1992, Gaussian, Inc.),
 the Gaussian 90(TM) system (copyright 1990, Gaussian, Inc.),
 the Gaussian 88(TM) system (copyright 1988, Gaussian, Inc.),
 the Gaussian 86(TM) system (copyright 1986, Carnegie Mellon
 University), and the Gaussian 82(TM) system (copyright 1983,
 Carnegie Mellon University). Gaussian is a federally registered
 trademark of Gaussian, Inc.
  
 This software contains proprietary and confidential information,
 including trade secrets, belonging to Gaussian, Inc.
  
 This software is provided under written license and may be
 used, copied, transmitted, or stored only in accord with that
 written license.
  
 The following legend is applicable only to US Government
 contracts under FAR:
  
                    RESTRICTED RIGHTS LEGEND
  
 Use, reproduction and disclosure by the US Government is
 subject to restrictions as set forth in subparagraphs (a)
 and (c) of the Commercial Computer Software - Restricted
 Rights clause in FAR 52.227-19.
  
 Gaussian, Inc.
 340 Quinnipiac St., Bldg. 40, Wallingford CT 06492
  
  
 ---------------------------------------------------------------
 Warning -- This program may not be used in any manner that
 competes with the business of Gaussian, Inc. or will provide
 assistance to any competitor of Gaussian, Inc.  The licensee
 of this program is prohibited from giving any competitor of
 Gaussian, Inc. access to this program.  By using this program,
 the user acknowledges that Gaussian, Inc. is engaged in the
 business of creating and licensing software in the field of
 computational chemistry and represents and warrants to the
 licensee that it is not a competitor of Gaussian, Inc. and that
 it will not use this program in any manner prohibited above.
 ---------------------------------------------------------------
  

 Cite this work as:
 Gaussian Development Version, Revision J.30+,
 M. J. Frisch, G. W. Trucks, G. Scalmani, J. R. Cheeseman, X. Li, 
 J. Bloino, B. G. Janesko, A. V. Marenich, J. Zheng, F. Lipparini, 
 A. Jenkins, A. Liu, H. Liu, H. B. Schlegel, G. E. Scuseria, 
 M. A. Robb, V. Barone, G. A. Petersson, H. Nakatsuji, B. Mennucci, 
 C. Adamo, N. Rega, M. Caricato, H. P. Hratchian, J. V. Ortiz, 
 F. Pawlowski, A. F. Izmaylov, H. Hu, C. Liao, J. L. Sonnenberg, 
 D. Williams-Young, F. Ding, R. Gomperts, F. Egidi, J. Goings, 
 B. Peng, A. Petrone, T. Henderson, D. Ranasinghe, V. G. Zakrzewski, 
 J. Gao, G. Zheng, W. Liang, M. Hada, M. Ehara, K. Toyota, R. Fukuda, 
 J. Hasegawa, M. Ishida, T. Nakajima, Y. Honda, O. Kitao, H. Nakai, 
 T. Vreven, K. Throssell, J. A. Montgomery, Jr., J. E. Peralta, 
 F. Ogliaro, M. J. Bearpark, J. J. Heyd, E. N. Brothers, K. N. Kudin, 
 V. N. Staroverov, T. A. Keith, R. Kobayashi, J. Normand, 
 K. Raghavachari, A. P. Rendell, J. C. Burant, S. S. Iyengar, 
 M. Cossi, J. M. Millam, M. Klene, R. Cammi, R. L. Martin, O. Farkas, 
 J. B. Foresman, and D. J. Fox, Gaussian, Inc., Wallingford CT, 2024.
 
 *******************************************
 Gaussian DV:  ES64L-GDVRevJ.30+ 18-Dec-2024
                 30-Jul-2025 
 *******************************************
 %chk=ch2o_neutral.chk
 -----------------------
 #p B3LYP/6-31G opt freq
 -----------------------
 1/18=20,19=15,26=4,37=210000000,38=1/1,3;
 2/9=110,12=2/2;
 3/5=1,6=6,11=2,25=1,30=1,71=1,74=-5/1,2,3;
 4//1;
 5/5=2,38=5/2;
 6/7=2,8=2,9=2,10=2,28=1/1;
 7//1,2,3,16;
 1/18=20,19=15,26=4/3(2);
 2/9=110/2;
 99//99;
 2/9=110/2;
 3/5=1,6=6,11=2,25=1,30=1,71=1,74=-5/1,2,3;
 4/5=5,16=3,69=1/1;
 5/5=2,38=5/2;
 7//1,2,3,16;
 1/18=20,19=15,26=4/3(-5);
 2/9=110/2;
 6/7=2,8=2,9=2,10=2,19=2,28=1/1;
 99/9=1/99;
 Leave Link    1 at Wed Jul 30 07:40:09 2025, MaxMem=           0 cpu:               0.4 elap:               0.0
 (Enter /home/hhratchian/gaussian/gdv-20250101-j30+/gdv/local/l101.exe)
 
  Hrant - IAPOps =                         0
  Hrant - IAPOp1 =                         0
  Hrant - IAPOp2 =                         0
  Hrant - DoAP   =   F
 
 ------------
 CH2O neutral
 ------------
 Symbolic Z-matrix:
 Charge =     0 Multiplicity =     1
 C                     0.        0.        0. 
 O                     0.        0.        1.21 
 H                     0.        0.942    -0.588 
 H                     0.       -0.942    -0.588 
 
 Initializing the GIC definitions file.
 ITRead=  0  0  0  0
 MicOpt= -1 -1 -1 -1
 NAtoms=      4 NQM=        4 NQMF=       0 NMMI=      0 NMMIF=      0
                NMic=       0 NMicF=      0.
                    Isotopes and Nuclear Properties:
 (Nuclear quadrupole moments (NQMom) in fm**2, nuclear magnetic moments (NMagM)
  in nuclear magnetons)

  Atom         1           2           3           4
 IAtWgt=          12          16           1           1
 AtmWgt=  12.0000000  15.9949146   1.0078250   1.0078250
 NucSpn=           0           0           1           1
 AtZEff=   -0.000000   -0.000000   -0.000000   -0.000000
 NQMom=    0.0000000   0.0000000   0.0000000   0.0000000
 NMagM=    0.0000000   0.0000000   2.7928460   2.7928460
 AtZNuc=   6.0000000   8.0000000   1.0000000   1.0000000
 Leave Link  101 at Wed Jul 30 07:40:13 2025, MaxMem= 12348030976 cpu:               3.9 elap:               3.7
 (Enter /home/hhratchian/gaussian/gdv-20250101-j30+/gdv/l103.exe)

 GradGradGradGradGradGradGradGradGradGradGradGradGradGradGradGradGradGrad
 Berny optimization.
 Initialization pass.
                           ----------------------------
                           !    Initial Parameters    !
                           ! (Angstroms and Degrees)  !
 --------------------------                            --------------------------
 ! Name  Definition              Value          Derivative Info.                !
 --------------------------------------------------------------------------------
 ! R1    R(1,2)                  1.21           estimate D2E/DX2                !
 ! R2    R(1,3)                  1.1105         estimate D2E/DX2                !
 ! R3    R(1,4)                  1.1105         estimate D2E/DX2                !
 ! A1    A(2,1,3)              121.9726         estimate D2E/DX2                !
 ! A2    A(2,1,4)              121.9726         estimate D2E/DX2                !
 ! A3    A(3,1,4)              116.0549         estimate D2E/DX2                !
 ! D1    D(3,1,2,4)            180.0            estimate D2E/DX2                !
 --------------------------------------------------------------------------------
 Trust Radius=3.00D-01 FncErr=1.00D-07 GrdErr=1.00D-06 EigMax=2.50D+02 EigMin=1.00D-04
 Number of steps in this run=     20 maximum allowed number of steps=    100.
 GradGradGradGradGradGradGradGradGradGradGradGradGradGradGradGradGradGrad

 Leave Link  103 at Wed Jul 30 07:40:13 2025, MaxMem= 12348030976 cpu:               0.1 elap:               0.0
 (Enter /home/hhratchian/gaussian/gdv-20250101-j30+/gdv/l202.exe)
                          Input orientation:                          
 ---------------------------------------------------------------------
 Center     Atomic      Atomic             Coordinates (Angstroms)
 Number     Number       Type             X           Y           Z
 ---------------------------------------------------------------------
      1          6           0        0.000000    0.000000    0.000000
      2          8           0        0.000000    0.000000    1.210000
      3          1           0        0.000000    0.942000   -0.588000
      4          1           0        0.000000   -0.942000   -0.588000
 ---------------------------------------------------------------------
                    Distance matrix (angstroms):
                    1          2          3          4
     1  C    0.000000
     2  O    1.210000   0.000000
     3  H    1.110454   2.029820   0.000000
     4  H    1.110454   2.029820   1.884000   0.000000
 Stoichiometry    CH2O
 Framework group  C2V[C2(CO),SGV(H2)]
 Deg. of freedom     3
 Full point group                 C2V     NOp   4
 Largest Abelian subgroup         C2V     NOp   4
 Largest concise Abelian subgroup C2      NOp   2
                         Standard orientation:                         
 ---------------------------------------------------------------------
 Center     Atomic      Atomic             Coordinates (Angstroms)
 Number     Number       Type             X           Y           Z
 ---------------------------------------------------------------------
      1          6           0        0.000000    0.000000   -0.531500
      2          8           0        0.000000   -0.000000    0.678500
      3          1           0        0.000000    0.942000   -1.119500
      4          1           0       -0.000000   -0.942000   -1.119500
 ---------------------------------------------------------------------
 Rotational constants (GHZ):         282.5532163          38.5326477          33.9084487
 Leave Link  202 at Wed Jul 30 07:40:13 2025, MaxMem= 12348030976 cpu:               0.3 elap:               0.0
 (Enter /home/hhratchian/gaussian/gdv-20250101-j30+/gdv/local/l301.exe)
 Standard basis: 6-31G (6D, 7F)
 Ernie: Thresh=  0.10000D-02 Tol=  0.10000D-05 Strict=F.
 There are    12 symmetry adapted cartesian basis functions of A1  symmetry.
 There are     0 symmetry adapted cartesian basis functions of A2  symmetry.
 There are     4 symmetry adapted cartesian basis functions of B1  symmetry.
 There are     6 symmetry adapted cartesian basis functions of B2  symmetry.
 There are    12 symmetry adapted basis functions of A1  symmetry.
 There are     0 symmetry adapted basis functions of A2  symmetry.
 There are     4 symmetry adapted basis functions of B1  symmetry.
 There are     6 symmetry adapted basis functions of B2  symmetry.
    22 basis functions,    52 primitive gaussians,    22 cartesian basis functions
     8 alpha electrons        8 beta electrons
       nuclear repulsion energy        31.1627547918 Hartrees.
 IExCor=      4002 DFT=T Ex+Corr=B3LYP ScaHFX=  0.200000
 ScaDFX=  0.800000  0.720000  1.000000  0.810000  1.000000  0.000000
 ScaDFX=  0.000000  0.000000  0.000000  0.000000  0.000000  0.000000
 Grid=UltraFine IRanWt=     -1 IRanGd=            0 ICorTp=0 IEDCtl=  2004
 NAtoms=    4 NActive=    4 NUniq=    3 SFac= 1.78D+00 NAtFMM=   60 NAOKFM=F Big=F
 Integral buffers will be    131072 words long.
 Raffenetti 2 integral format.
 Two-electron integral symmetry is turned on.
 Leave Link  301 at Wed Jul 30 07:40:13 2025, MaxMem= 12348030976 cpu:               0.2 elap:               0.0
 (Enter /home/hhratchian/gaussian/gdv-20250101-j30+/gdv/l302.exe)
 NPDir=0 NMtPBC=     1 NCelOv=     1 NCel=       1 NClECP=     1 NCelD=      1
         NCelK=      1 NCelE2=     1 NClLst=     1 CellRange=     0.0.
 One-electron integrals computed using PRISM.
 One-electron integral symmetry used in STVInt
 NBasis=    22 RedAO= T EigKep=  2.32D-02  NBF=    12     0     4     6
 NBsUse=    22 1.00D-06 EigRej= -1.00D+00 NBFU=    12     0     4     6
 Precomputing XC quadrature grid using
 IXCGrd=   9 Grid=UltraFine IRanWt=          -1 IRanGd=           0 AccXCQ= 0.00D+00.
 Generated NRdTot=       0 NPtTot=       90123 NUsed=           0 NTot=          64
 NSgBfM=    22    22    22    22    22 MxSgAt=     4 MxSgA2=     4 SizInc=   0.000
 NMBTot=      827 MaxBatPerAtom=       82 MaxMicBPerAtom=      209 NBfPt=             1714992.
 Leave Link  302 at Wed Jul 30 07:40:13 2025, MaxMem= 12348030976 cpu:               2.1 elap:               0.1
 (Enter /home/hhratchian/gaussian/gdv-20250101-j30+/gdv/l303.exe)
 DipDrv:  MaxL=1.
 Leave Link  303 at Wed Jul 30 07:40:13 2025, MaxMem= 12348030976 cpu:               0.2 elap:               0.0
 (Enter /home/hhratchian/gaussian/gdv-20250101-j30+/gdv/l401.exe)
 ExpMin= 1.61D-01 ExpMax= 5.48D+03 ExpMxC= 8.25D+02 IAcc=3 Grid=UltraFine AccDes= 0.00D+00
 Harris functional with IExCor= 4002 and Grid=UltraFine diagonalized for initial guess.
 HarFok:  IExCor=    4002 AccDes= 0.00D+00 Grid=UltraFine IDoV= 1 UseB2=F ITyADJ=14 ICtDFT=  3500011
 FoFCou: FMM=F IPFlag=           0 FMFlag=      100000 FMFlg1=           0
         NFxFlg=           0 DoJE=T BraDBF=F KetDBF=T FulRan=T
         wScrn=  0.000000 ICntrl=       500 IOpCl=  0 I1Cent=   200000004 NGrid=           0
         NMat0=    1 NMatS0=      1 NMatT0=    0 NMatD0=    1 NMtDS0=    0 NMtDT0=    0
 Petite list used in FoFCou.
 Harris En= -114.473376550716    
 JPrj=0 DoOrth=F DoCkMO=F.
 Initial guess orbital symmetries:
       Occupied  (A1) (A1) (A1) (A1) (B2) (A1) (B1) (B2)
       Virtual   (B1) (A1) (B2) (A1) (B1) (B2) (A1) (A1) (B2) (A1)
                 (A1) (B1) (B2) (A1)
 The electronic state of the initial guess is 1-A1.
 Leave Link  401 at Wed Jul 30 07:40:13 2025, MaxMem= 12348030976 cpu:               3.6 elap:               0.1
 (Enter /home/hhratchian/gaussian/gdv-20250101-j30+/gdv/local/l502.exe)
 Keep R1 ints in memory in symmetry-blocked form, NReq=48443327.
 FoFCou: FMM=F IPFlag=           0 FMFlag=           0 FMFlg1=           0
         NFxFlg=           0 DoJE=F BraDBF=F KetDBF=F FulRan=T
         wScrn=  0.000000 ICntrl=       600 IOpCl=  0 I1Cent=           0 NGrid=           0
         NMat0=    1 NMatS0=    253 NMatT0=    0 NMatD0=    1 NMtDS0=    0 NMtDT0=    0
 Petite list used in FoFCou.
 Closed shell SCF:
 Using DIIS extrapolation, IDIIS=  1040.
 NGot= 12348030976 LenX= 12348016719 LenY= 12348015794
 Requested convergence on RMS density matrix=1.00D-08 within 128 cycles.
 Requested convergence on MAX density matrix=1.00D-06.
 Requested convergence on             energy=1.00D-06.
 No special actions if energy rises.
 Integral accuracy reduced to 1.0D-05 until final iterations.
 
  Hrant - CycOpn.
 

 Cycle   1  Pass 0  IDiag  1:
 E= -114.407955682527    
 DIIS: error= 5.85D-02 at cycle   1 NSaved=   1.
 NSaved= 1 IEnMin= 1 EnMin= -114.407955682527     IErMin= 1 ErrMin= 5.85D-02
 ErrMax= 5.85D-02  0.00D+00 EMaxC= 1.00D-01 BMatC= 3.03D-02 BMatP= 3.03D-02
 Rises=F IDIUse=3 WtCom= 4.15D-01 WtEn= 5.85D-01
 Coeff-Com:  0.100D+01
 Coeff-En:   0.100D+01
 Coeff:      0.100D+01
 Gap=     0.159 Goal=   None    Shift=    0.000
 GapD=    0.159 DampG=1.000 DampE=0.500 DampFc=0.5000 IDamp=-1.
 Damping current iteration by 5.00D-01
 RMSDP=3.26D-02 MaxDP=1.91D-01              OVMax= 3.05D-01

 Cycle   2  Pass 0  IDiag  1:
 E= -114.400703429892     Delta-E=        0.007252252636 Rises=F Damp=T AM=F Ri=F Fa=F
 DIIS: error= 3.77D-02 at cycle   2 NSaved=   2.
 NSaved= 2 IEnMin= 1 EnMin= -114.407955682527     IErMin= 2 ErrMin= 3.77D-02
 ErrMax= 3.77D-02  0.00D+00 EMaxC= 1.00D-01 BMatC= 1.24D-02 BMatP= 3.03D-02
 Rises=T IDIUse=3 WtCom= 6.23D-01 WtEn= 3.77D-01
 Coeff-Com:  0.379D+00 0.621D+00
 Coeff-En:   0.543D+00 0.457D+00
 Coeff:      0.441D+00 0.559D+00
 Gap=     0.206 Goal=   None    Shift=    0.000
 RMSDP=6.13D-03 MaxDP=3.20D-02 DE= 7.25D-03 OVMax= 2.03D-01

 Cycle   3  Pass 0  IDiag  1:
 E= -114.458364970622     Delta-E=       -0.057661540731 Rises=F Damp=F AM=F Ri=F Fa=F
 DIIS: error= 9.00D-03 at cycle   3 NSaved=   3.
 NSaved= 3 IEnMin= 3 EnMin= -114.458364970622     IErMin= 3 ErrMin= 9.00D-03
 ErrMax= 9.00D-03  0.00D+00 EMaxC= 1.00D-01 BMatC= 1.11D-03 BMatP= 1.24D-02
 Rises=F IDIUse=3 WtCom= 9.15D-01 WtEn= 8.53D-02
 Coeff-Com:  0.185D+00 0.157D+00 0.658D+00
 Coeff-En:   0.000D+00 0.000D+00 0.100D+01
 Coeff:      0.169D+00 0.144D+00 0.687D+00
 Gap=     0.217 Goal=   None    Shift=    0.000
 RMSDP=2.58D-03 MaxDP=1.48D-02 DE=-5.77D-02 OVMax= 1.54D-02

 Cycle   4  Pass 0  IDiag  1:
 E= -114.460292100852     Delta-E=       -0.001927130230 Rises=F Damp=F AM=F Ri=F Fa=F
 DIIS: error= 2.64D-03 at cycle   4 NSaved=   4.
 NSaved= 4 IEnMin= 4 EnMin= -114.460292100852     IErMin= 4 ErrMin= 2.64D-03
 ErrMax= 2.64D-03  0.00D+00 EMaxC= 1.00D-01 BMatC= 4.81D-05 BMatP= 1.11D-03
 Rises=F IDIUse=3 WtCom= 9.86D-01 WtEn= 1.36D-02
 Coeff-Com:  0.230D-01-0.170D-01 0.222D+00 0.772D+00
 Coeff-En:   0.000D+00 0.000D+00 0.000D+00 0.100D+01
 Coeff:      0.227D-01-0.168D-01 0.219D+00 0.775D+00
 Gap=     0.219 Goal=   None    Shift=    0.000
 RMSDP=4.42D-04 MaxDP=3.72D-03 DE=-1.93D-03 OVMax= 3.18D-03

 Cycle   5  Pass 0  IDiag  1:
 E= -114.460392848423     Delta-E=       -0.000100747571 Rises=F Damp=F AM=F Ri=F Fa=F
 DIIS: error= 5.07D-04 at cycle   5 NSaved=   5.
 NSaved= 5 IEnMin= 5 EnMin= -114.460392848423     IErMin= 5 ErrMin= 5.07D-04
 ErrMax= 5.07D-04  0.00D+00 EMaxC= 1.00D-01 BMatC= 1.97D-06 BMatP= 4.81D-05
 Rises=F IDIUse=3 WtCom= 9.99D-01 WtEn= 1.14D-03
 Coeff-Com:  0.479D-02-0.104D-01 0.277D-01 0.118D+00 0.860D+00
 Coeff-En:   0.000D+00 0.000D+00 0.000D+00 0.000D+00 0.100D+01
 Coeff:      0.478D-02-0.104D-01 0.277D-01 0.118D+00 0.860D+00
 Gap=     0.219 Goal=   None    Shift=    0.000
 RMSDP=1.10D-04 MaxDP=5.44D-04 DE=-1.01D-04 OVMax= 7.43D-04

 Cycle   6  Pass 0  IDiag  1:
 E= -114.460396463406     Delta-E=       -0.000003614983 Rises=F Damp=F AM=F Ri=F Fa=F
 DIIS: error= 4.44D-05 at cycle   6 NSaved=   6.
 NSaved= 6 IEnMin= 6 EnMin= -114.460396463406     IErMin= 6 ErrMin= 4.44D-05
 ErrMax= 4.44D-05  0.00D+00 EMaxC= 1.00D-01 BMatC= 1.69D-08 BMatP= 1.97D-06
 Rises=F IDIUse=1 WtCom= 1.00D+00 WtEn= 0.00D+00
 Coeff-Com:  0.190D-03-0.429D-03-0.126D-03-0.536D-02-0.325D-01 0.104D+01
 Coeff:      0.190D-03-0.429D-03-0.126D-03-0.536D-02-0.325D-01 0.104D+01
 Gap=     0.219 Goal=   None    Shift=    0.000
 RMSDP=7.02D-06 MaxDP=3.24D-05 DE=-3.61D-06 OVMax= 5.04D-05

 Initial convergence to 1.0D-05 achieved.  Increase integral accuracy.
 Cycle   7  Pass 1  IDiag  1:
 E= -114.460396641945     Delta-E=       -0.000000178539 Rises=F Damp=F AM=F Ri=F Fa=F
 DIIS: error= 4.55D-06 at cycle   1 NSaved=   1.
 NSaved= 1 IEnMin= 1 EnMin= -114.460396641945     IErMin= 1 ErrMin= 4.55D-06
 ErrMax= 4.55D-06  0.00D+00 EMaxC= 1.00D-01 BMatC= 1.57D-10 BMatP= 1.57D-10
 Rises=F IDIUse=1 WtCom= 1.00D+00 WtEn= 0.00D+00
 Coeff-Com:  0.100D+01
 Coeff:      0.100D+01
 Gap=     0.219 Goal=   None    Shift=    0.000
 RMSDP=7.02D-06 MaxDP=3.24D-05 DE=-1.79D-07 OVMax= 2.46D-05

 Cycle   8  Pass 1  IDiag  1:
 E= -114.460396640844     Delta-E=        0.000000001101 Rises=F Damp=F AM=F Ri=F Fa=F
 DIIS: error= 1.10D-05 at cycle   2 NSaved=   2.
 NSaved= 2 IEnMin= 1 EnMin= -114.460396641945     IErMin= 1 ErrMin= 4.55D-06
 ErrMax= 1.10D-05  0.00D+00 EMaxC= 1.00D-01 BMatC= 8.55D-10 BMatP= 1.57D-10
 Rises=F IDIUse=1 WtCom= 1.00D+00 WtEn= 0.00D+00
 Coeff-Com:  0.701D+00 0.299D+00
 Coeff:      0.701D+00 0.299D+00
 Gap=     0.219 Goal=   None    Shift=    0.000
 RMSDP=1.31D-06 MaxDP=1.03D-05 DE= 1.10D-09 OVMax= 1.72D-05

 Cycle   9  Pass 1  IDiag  1:
 E= -114.460396642215     Delta-E=       -0.000000001370 Rises=F Damp=F AM=F Ri=F Fa=F
 DIIS: error= 1.03D-07 at cycle   3 NSaved=   3.
 NSaved= 3 IEnMin= 3 EnMin= -114.460396642215     IErMin= 3 ErrMin= 1.03D-07
 ErrMax= 1.03D-07  0.00D+00 EMaxC= 1.00D-01 BMatC= 5.93D-14 BMatP= 1.57D-10
 Rises=F IDIUse=1 WtCom= 1.00D+00 WtEn= 0.00D+00
 Coeff-Com:  0.162D-01 0.336D-02 0.980D+00
 Coeff:      0.162D-01 0.336D-02 0.980D+00
 Gap=     0.219 Goal=   None    Shift=    0.000
 RMSDP=4.41D-08 MaxDP=2.26D-07 DE=-1.37D-09 OVMax= 4.14D-07

 Cycle  10  Pass 1  IDiag  1:
 E= -114.460396642215     Delta-E=       -0.000000000000 Rises=F Damp=F AM=F Ri=F Fa=F
 DIIS: error= 6.11D-08 at cycle   4 NSaved=   4.
 NSaved= 4 IEnMin= 4 EnMin= -114.460396642215     IErMin= 4 ErrMin= 6.11D-08
 ErrMax= 6.11D-08  0.00D+00 EMaxC= 1.00D-01 BMatC= 4.07D-14 BMatP= 5.93D-14
 Rises=F IDIUse=1 WtCom= 1.00D+00 WtEn= 0.00D+00
 Coeff-Com: -0.668D-02 0.723D-03 0.263D+00 0.743D+00
 Coeff:     -0.668D-02 0.723D-03 0.263D+00 0.743D+00
 Gap=     0.219 Goal=   None    Shift=    0.000
 RMSDP=1.56D-08 MaxDP=7.93D-08 DE=-1.71D-13 OVMax= 9.93D-08

 Cycle  11  Pass 1  IDiag  1:
 E= -114.460396642215     Delta-E=       -0.000000000000 Rises=F Damp=F AM=F Ri=F Fa=F
 DIIS: error= 2.02D-08 at cycle   5 NSaved=   5.
 NSaved= 5 IEnMin= 5 EnMin= -114.460396642215     IErMin= 5 ErrMin= 2.02D-08
 ErrMax= 2.02D-08  0.00D+00 EMaxC= 1.00D-01 BMatC= 4.10D-15 BMatP= 4.07D-14
 Rises=F IDIUse=1 WtCom= 1.00D+00 WtEn= 0.00D+00
 Coeff-Com: -0.512D-02 0.717D-03 0.283D-01 0.295D+00 0.681D+00
 Coeff:     -0.512D-02 0.717D-03 0.283D-01 0.295D+00 0.681D+00
 Gap=     0.219 Goal=   None    Shift=    0.000
 RMSDP=3.35D-09 MaxDP=2.18D-08 DE=-1.71D-13 OVMax= 3.30D-08

 SCF Done:  E(RB3LYP) =  -114.460396642     A.U. after   11 cycles
            NFock= 11  Conv=0.33D-08     -V/T= 2.0052
 KE=         113.871933 PE=        -330.922422 EE=          71.427338
 Leave Link  502 at Wed Jul 30 07:40:13 2025, MaxMem= 12348030976 cpu:               5.5 elap:               0.2
 (Enter /home/hhratchian/gaussian/gdv-20250101-j30+/gdv/l601.exe)
 Copying SCF densities to generalized density rwf, IOpCl= 0 IROHF=0.
 
 **********************************************************************
 
               Population analysis using the SCF Density.
 
 **********************************************************************
 
 Orbital symmetries:
       Occupied  (A1) (A1) (A1) (A1) (B2) (A1) (B1) (B2)
       Virtual   (B1) (A1) (B2) (A1) (B1) (B2) (A1) (A1) (B2) (A1)
                 (A1) (B1) (B2) (A1)
 The electronic state is 1-A1.
 Alpha  occ. eigenvalues --      -19.17416     -10.29180      -1.08721      -0.64030      -0.50685
 Alpha  occ. eigenvalues --       -0.44655      -0.40688      -0.26996
 Alpha virt. eigenvalues --       -0.05087       0.09715       0.17419       0.21537       0.50504
 Alpha virt. eigenvalues --        0.62445       0.64598       0.71963       0.85401       0.87462
 Alpha virt. eigenvalues --        0.94753       0.95568       1.10747       1.60143
          Condensed to atoms (all electrons):
               1          2          3          4
     1  C    4.793997   0.475297   0.319327   0.319327
     2  O    0.475297   7.979654  -0.063175  -0.063175
     3  H    0.319327  -0.063175   0.721386  -0.095813
     4  H    0.319327  -0.063175  -0.095813   0.721386
 Mulliken charges:
               1
     1  C    0.092052
     2  O   -0.328602
     3  H    0.118275
     4  H    0.118275
 Sum of Mulliken charges=  -0.00000
 Mulliken charges with hydrogens summed into heavy atoms:
               1
     1  C    0.328602
     2  O   -0.328602
 Electronic spatial extent (au):  <R**2>=             60.8630
 Charge=             -0.0000 electrons
 Dipole moment (field-independent basis, Debye):
    X=             -0.0000    Y=              0.0000    Z=             -2.3805  Tot=              2.3805
 Quadrupole moment (field-independent basis, Debye-Ang):
   XX=            -11.4782   YY=            -11.5610   ZZ=            -12.4289
   XY=              0.0000   XZ=              0.0000   YZ=             -0.0000
 Traceless Quadrupole moment (field-independent basis, Debye-Ang):
   XX=              0.3445   YY=              0.2617   ZZ=             -0.6062
   XY=              0.0000   XZ=              0.0000   YZ=             -0.0000
 Octapole moment (field-independent basis, Debye-Ang**2):
  XXX=              0.0000  YYY=             -0.0000  ZZZ=              0.7789  XYY=              0.0000
  XXY=              0.0000  XXZ=              0.9727  XZZ=              0.0000  YZZ=             -0.0000
  YYZ=              0.0209  XYZ=             -0.0000
 Hexadecapole moment (field-independent basis, Debye-Ang**3):
 XXXX=             -9.3075 YYYY=            -18.2160 ZZZZ=            -44.8124 XXXY=             -0.0000
 XXXZ=             -0.0000 YYYX=             -0.0000 YYYZ=              0.0000 ZZZX=             -0.0000
 ZZZY=             -0.0000 XXYY=             -4.7827 XXZZ=             -8.9997 YYZZ=            -10.2973
 XXYZ=              0.0000 YYXZ=             -0.0000 ZZXY=             -0.0000
 N-N=          31.162755 E-N=        -330.922422  KE=         113.871933
 Symmetry A1   KE=         103.486481
 Symmetry A2   KE=           0.000000
 Symmetry B1   KE=           3.617647
 Symmetry B2   KE=           6.767805
 No NMR shielding tensors so no spin-rotation constants.
 Leave Link  601 at Wed Jul 30 07:40:13 2025, MaxMem= 12348030976 cpu:               2.2 elap:               0.1
 (Enter /home/hhratchian/gaussian/gdv-20250101-j30+/gdv/l701.exe)
 ... and contract with generalized density number  0.
 Compute integral first derivatives.
 Leave Link  701 at Wed Jul 30 07:40:13 2025, MaxMem= 12348030976 cpu:               2.0 elap:               0.1
 (Enter /home/hhratchian/gaussian/gdv-20250101-j30+/gdv/l702.exe)
 L702 exits ... SP integral derivatives will be done elsewhere.
 Leave Link  702 at Wed Jul 30 07:40:13 2025, MaxMem= 12348030976 cpu:               0.2 elap:               0.0
 (Enter /home/hhratchian/gaussian/gdv-20250101-j30+/gdv/l703.exe)
 Integral derivatives from FoFJK, PRISM(SPDF).
 Compute integral first derivatives, UseDBF=F ICtDFT=           0.
 Calling FoFJK, ICntrl=      2127 FMM=F ISym2X=1 I1Cent= 0 IOpClX= 0 NMat=1 NMatS=1 NMatT=0.
 FoFJK:  IHMeth= 1 ICntrl=    2127 DoSepK=F KAlg= 0 I1Cent=           0 FoldK=F
 IRaf=         0 NMat=       1 IRICut=       1 DoRegI=T DoRafI=F ISym2E= 1 IDoP0=0 IntGTp=1.
 FoFCou: FMM=F IPFlag=           0 FMFlag=      100000 FMFlg1=         800
         NFxFlg=           0 DoJE=F BraDBF=F KetDBF=F FulRan=T
         wScrn=  0.000000 ICntrl=      2127 IOpCl=  0 I1Cent=           0 NGrid=           0
         NMat0=    1 NMatS0=      1 NMatT0=    0 NMatD0=    1 NMtDS0=    0 NMtDT0=    0
 Petite list used in FoFCou.
 Leave Link  703 at Wed Jul 30 07:40:14 2025, MaxMem= 12348030976 cpu:               2.9 elap:               0.1
 (Enter /home/hhratchian/gaussian/gdv-20250101-j30+/gdv/l716.exe)
 Dipole        =-1.74702958D-17 0.00000000D+00-9.36553329D-01
 ***** Axes restored to original set *****
 -------------------------------------------------------------------
 Center     Atomic                   Forces (Hartrees/Bohr)
 Number     Number              X              Y              Z
 -------------------------------------------------------------------
      1        6          -0.000000000    0.000000000   -0.034367930
      2        8          -0.000000000    0.000000000    0.033931588
      3        1           0.000000000   -0.003937932    0.000218171
      4        1           0.000000000    0.003937932    0.000218171
 -------------------------------------------------------------------
 Cartesian Forces:  Max     0.034367930 RMS     0.014034532
 Leave Link  716 at Wed Jul 30 07:40:14 2025, MaxMem= 12348030976 cpu:               0.2 elap:               0.0
 (Enter /home/hhratchian/gaussian/gdv-20250101-j30+/gdv/l103.exe)

 GradGradGradGradGradGradGradGradGradGradGradGradGradGradGradGradGradGrad
 Berny optimization.
 FormGI is forming the generalized inverse of G from B-inverse, IUseBI=4.
 NTrRot=    -1 NTRed=     7 NAtoms=     4 NSkip=     1 NRank=     6 IsLin=F EigSml=7.5027D-01
 Internal  Forces:  Max     0.033931588 RMS     0.013015599
 Search for a local minimum.
 Step number   1 out of a maximum of   20
 All quantities printed in internal units (Hartrees-Bohrs-Radians)
 RMS Force = .13016D-01 SwitMx=.10000D-02 MixMth= 1
 Mixed Optimization -- RFO/linear search
 Second derivative matrix not updated -- first step.
 The second derivative matrix:
                          R1        R2        R3        A1        A2
           R1           0.99955
           R2           0.00000   0.32552
           R3           0.00000   0.00000   0.32552
           A1           0.00000   0.00000   0.00000   0.16000
           A2           0.00000   0.00000   0.00000   0.00000   0.16000
           A3           0.00000   0.00000   0.00000   0.00000   0.00000
           D1           0.00000   0.00000   0.00000   0.00000   0.00000
                          A3        D1
           A3           0.16000
           D1           0.00000   0.04205
 ITU=  0
     Eigenvalues ---    0.04205   0.16000   0.16000   0.32552   0.32552
     Eigenvalues ---    0.99955
 RFO step:  Lambda=-1.28919825D-03 EMin= 4.20511613D-02
 Linear search not attempted -- first point.
 GrdOpt: GIC=T ITstSp=  0 NP=   1 DidLin=F DidDIS=F IDoGRo=0 IDoRot=0
         ISwap=1 XLin= 0.000 DXMaxT= 0.300
 Iteration  1 RMS(Cart)=  0.01260890 RMS(Int)=  0.00005402
 Iteration  2 RMS(Cart)=  0.00003099 RMS(Int)=  0.00000000
 Iteration  3 RMS(Cart)=  0.00000000 RMS(Int)=  0.00000000
 ClnCor:  largest displacement from symmetrization is 1.53D-14 for atom     1.
 Variable       Old X    -DE/DX   Delta X   Delta X   Delta X     New X
                                 (Linear)    (Quad)   (Total)
    R1        2.28657   0.03393   0.00000   0.03390   0.03390   2.32047
    R2        2.09845  -0.00346   0.00000  -0.01058  -0.01058   2.08788
    R3        2.09845  -0.00346   0.00000  -0.01058  -0.01058   2.08788
    A1        2.12882   0.00133   0.00000   0.00824   0.00824   2.13706
    A2        2.12882   0.00133   0.00000   0.00824   0.00824   2.13706
    A3        2.02554  -0.00266   0.00000  -0.01648  -0.01648   2.00906
    D1        3.14159   0.00000   0.00000   0.00000   0.00000   3.14159
         Item               Value     Threshold  Converged?
 Maximum Force            0.033932     0.000450     NO 
 RMS     Force            0.013016     0.000300     NO 
 Maximum Displacement     0.029906     0.001800     NO 
 RMS     Displacement     0.016493     0.001200     NO 
 Predicted change in Energy=-6.457489D-04
 Lowest energy point so far.  Saving SCF results.
 GradGradGradGradGradGradGradGradGradGradGradGradGradGradGradGradGradGrad

 Leave Link  103 at Wed Jul 30 07:40:14 2025, MaxMem= 12348030976 cpu:               0.3 elap:               0.0
 (Enter /home/hhratchian/gaussian/gdv-20250101-j30+/gdv/l202.exe)
                          Input orientation:                          
 ---------------------------------------------------------------------
 Center     Atomic      Atomic             Coordinates (Angstroms)
 Number     Number       Type             X           Y           Z
 ---------------------------------------------------------------------
      1          6           0        0.000000    0.000000   -0.002115
      2          8           0       -0.000000    0.000000    1.225826
      3          1           0        0.000000    0.932400   -0.594855
      4          1           0       -0.000000   -0.932400   -0.594855
 ---------------------------------------------------------------------
                    Distance matrix (angstroms):
                    1          2          3          4
     1  C    0.000000
     2  O    1.227941   0.000000
     3  H    1.104858   2.045544   0.000000
     4  H    1.104858   2.045544   1.864800   0.000000
 Stoichiometry    CH2O
 Framework group  C2V[C2(CO),SGV(H2)]
 Deg. of freedom     3
 Full point group                 C2V     NOp   4
 RotChk:  IX=0 Diff= 5.33D-16
 Largest Abelian subgroup         C2V     NOp   4
 Largest concise Abelian subgroup C2      NOp   2
                         Standard orientation:                         
 ---------------------------------------------------------------------
 Center     Atomic      Atomic             Coordinates (Angstroms)
 Number     Number       Type             X           Y           Z
 ---------------------------------------------------------------------
      1          6           0        0.000000   -0.000000   -0.539878
      2          8           0       -0.000000    0.000000    0.688063
      3          1           0       -0.000000    0.932400   -1.132618
      4          1           0       -0.000000   -0.932400   -1.132618
 ---------------------------------------------------------------------
 Rotational constants (GHZ):         288.4015003          37.4687058          33.1605368
 Leave Link  202 at Wed Jul 30 07:40:14 2025, MaxMem= 12348030976 cpu:               0.3 elap:               0.0
 (Enter /home/hhratchian/gaussian/gdv-20250101-j30+/gdv/local/l301.exe)
 Standard basis: 6-31G (6D, 7F)
 Ernie: Thresh=  0.10000D-02 Tol=  0.10000D-05 Strict=F.
 There are    12 symmetry adapted cartesian basis functions of A1  symmetry.
 There are     0 symmetry adapted cartesian basis functions of A2  symmetry.
 There are     4 symmetry adapted cartesian basis functions of B1  symmetry.
 There are     6 symmetry adapted cartesian basis functions of B2  symmetry.
 There are    12 symmetry adapted basis functions of A1  symmetry.
 There are     0 symmetry adapted basis functions of A2  symmetry.
 There are     4 symmetry adapted basis functions of B1  symmetry.
 There are     6 symmetry adapted basis functions of B2  symmetry.
    22 basis functions,    52 primitive gaussians,    22 cartesian basis functions
     8 alpha electrons        8 beta electrons
       nuclear repulsion energy        30.8558414919 Hartrees.
 IExCor=      4002 DFT=T Ex+Corr=B3LYP ScaHFX=  0.200000
 ScaDFX=  0.800000  0.720000  1.000000  0.810000  1.000000  0.000000
 ScaDFX=  0.000000  0.000000  0.000000  0.000000  0.000000  0.000000
 Grid=UltraFine IRanWt=     -1 IRanGd=            0 ICorTp=0 IEDCtl=  2004
 NAtoms=    4 NActive=    4 NUniq=    3 SFac= 1.78D+00 NAtFMM=   60 NAOKFM=F Big=F
 Integral buffers will be    131072 words long.
 Raffenetti 2 integral format.
 Two-electron integral symmetry is turned on.
 Leave Link  301 at Wed Jul 30 07:40:14 2025, MaxMem= 12348030976 cpu:               0.2 elap:               0.1
 (Enter /home/hhratchian/gaussian/gdv-20250101-j30+/gdv/l302.exe)
 NPDir=0 NMtPBC=     1 NCelOv=     1 NCel=       1 NClECP=     1 NCelD=      1
         NCelK=      1 NCelE2=     1 NClLst=     1 CellRange=     0.0.
 One-electron integrals computed using PRISM.
 One-electron integral symmetry used in STVInt
 NBasis=    22 RedAO= T EigKep=  2.41D-02  NBF=    12     0     4     6
 NBsUse=    22 1.00D-06 EigRej= -1.00D+00 NBFU=    12     0     4     6
 Precomputing XC quadrature grid using
 IXCGrd=   9 Grid=UltraFine IRanWt=          -1 IRanGd=           0 AccXCQ= 0.00D+00.
 Generated NRdTot=       0 NPtTot=       90203 NUsed=           0 NTot=          64
 NSgBfM=    22    22    22    22    22 MxSgAt=     4 MxSgA2=     4 SizInc=   0.000
 NMBTot=      825 MaxBatPerAtom=       82 MaxMicBPerAtom=      209 NBfPt=             1715933.
 Leave Link  302 at Wed Jul 30 07:40:14 2025, MaxMem= 12348030976 cpu:               2.2 elap:               0.1
 (Enter /home/hhratchian/gaussian/gdv-20250101-j30+/gdv/l303.exe)
 DipDrv:  MaxL=1.
 Leave Link  303 at Wed Jul 30 07:40:14 2025, MaxMem= 12348030976 cpu:               0.2 elap:               0.0
 (Enter /home/hhratchian/gaussian/gdv-20250101-j30+/gdv/l401.exe)
 Initial guess from the checkpoint file:  "ch2o_neutral.chk"
 B after Tr=     0.000000    0.000000   -0.000000
         Rot=    1.000000   -0.000000    0.000000   -0.000000 Ang=   0.00 deg.
 AO Guess basis will be translated and rotated to current coordinates.
 JPrj=2 DoOrth=T DoCkMO=T.
 Initial guess orbital symmetries:
       Occupied  (A1) (A1) (A1) (A1) (B2) (A1) (B1) (B2)
       Virtual   (B1) (A1) (B2) (A1) (B1) (B2) (A1) (A1) (B2) (A1)
                 (A1) (B1) (B2) (A1)
 The electronic state of the initial guess is 1-A1.
 Generating alternative initial guess.
 ExpMin= 1.61D-01 ExpMax= 5.48D+03 ExpMxC= 8.25D+02 IAcc=3 Grid=UltraFine AccDes= 0.00D+00
 Harris functional with IExCor= 4002 and Grid=UltraFine diagonalized for initial guess.
 HarFok:  IExCor=    4002 AccDes= 0.00D+00 Grid=UltraFine IDoV= 1 UseB2=F ITyADJ=14 ICtDFT=  3500011
 FoFCou: FMM=F IPFlag=           0 FMFlag=      100000 FMFlg1=           0
         NFxFlg=           0 DoJE=T BraDBF=F KetDBF=T FulRan=T
         wScrn=  0.000000 ICntrl=       500 IOpCl=  0 I1Cent=   200000004 NGrid=           0
         NMat0=    1 NMatS0=      1 NMatT0=    0 NMatD0=    1 NMtDS0=    0 NMtDT0=    0
 Petite list used in FoFCou.
 Harris En= -114.474181605486    
 Leave Link  401 at Wed Jul 30 07:40:14 2025, MaxMem= 12348030976 cpu:               3.8 elap:               0.2
 (Enter /home/hhratchian/gaussian/gdv-20250101-j30+/gdv/local/l502.exe)
 Keep R1 ints in memory in symmetry-blocked form, NReq=48443327.
 FoFCou: FMM=F IPFlag=           0 FMFlag=           0 FMFlg1=           0
         NFxFlg=           0 DoJE=F BraDBF=F KetDBF=F FulRan=T
         wScrn=  0.000000 ICntrl=       600 IOpCl=  0 I1Cent=           0 NGrid=           0
         NMat0=    1 NMatS0=    253 NMatT0=    0 NMatD0=    1 NMtDS0=    0 NMtDT0=    0
 Petite list used in FoFCou.
 Closed shell SCF:
 Using DIIS extrapolation, IDIIS=  1040.
 NGot= 12348030976 LenX= 12348016719 LenY= 12348015794
 Requested convergence on RMS density matrix=1.00D-08 within 128 cycles.
 Requested convergence on MAX density matrix=1.00D-06.
 Requested convergence on             energy=1.00D-06.
 No special actions if energy rises.
 Integral accuracy reduced to 1.0D-05 until final iterations.
 
  Hrant - CycOpn.
 

 Cycle   1  Pass 0  IDiag  1:
 E= -114.460881947428    
 DIIS: error= 2.68D-03 at cycle   1 NSaved=   1.
 NSaved= 1 IEnMin= 1 EnMin= -114.460881947428     IErMin= 1 ErrMin= 2.68D-03
 ErrMax= 2.68D-03  0.00D+00 EMaxC= 1.00D-01 BMatC= 8.29D-05 BMatP= 8.29D-05
 Rises=F IDIUse=3 WtCom= 9.86D-01 WtEn= 1.39D-02
 Coeff-Com:  0.100D+01
 Coeff-En:   0.100D+01
 Coeff:      0.100D+01
 Gap=     0.215 Goal=   None    Shift=    0.000
 GapD=    0.215 DampG=1.000 DampE=1.000 DampFc=1.0000 IDamp=-1.
 RMSDP=9.09D-04 MaxDP=5.05D-03              OVMax= 4.96D-03

 Cycle   2  Pass 0  IDiag  1:
 E= -114.461064888888     Delta-E=       -0.000182941460 Rises=F Damp=F AM=F Ri=F Fa=F
 DIIS: error= 1.69D-03 at cycle   2 NSaved=   2.
 NSaved= 2 IEnMin= 2 EnMin= -114.461064888888     IErMin= 2 ErrMin= 1.69D-03
 ErrMax= 1.69D-03  0.00D+00 EMaxC= 1.00D-01 BMatC= 2.88D-05 BMatP= 8.29D-05
 Rises=F IDIUse=3 WtCom= 9.93D-01 WtEn= 6.92D-03
 Coeff-Com:  0.314D+00 0.686D+00
 Coeff-En:   0.000D+00 0.100D+01
 Coeff:      0.312D+00 0.688D+00
 Gap=     0.216 Goal=   None    Shift=    0.000
 RMSDP=5.27D-04 MaxDP=4.01D-03 DE=-1.83D-04 OVMax= 6.03D-03

 Cycle   3  Pass 0  IDiag  1:
 E= -114.461046164285     Delta-E=        0.000018724603 Rises=F Damp=F AM=F Ri=F Fa=F
 DIIS: error= 2.32D-03 at cycle   3 NSaved=   3.
 NSaved= 3 IEnMin= 2 EnMin= -114.461064888888     IErMin= 2 ErrMin= 1.69D-03
 ErrMax= 2.32D-03  0.00D+00 EMaxC= 1.00D-01 BMatC= 3.89D-05 BMatP= 2.88D-05
 Rises=T IDIUse=3 WtCom= 1.72D-01 WtEn= 8.28D-01
 Coeff-Com:  0.177D-01 0.534D+00 0.449D+00
 Coeff-En:   0.000D+00 0.568D+00 0.432D+00
 Coeff:      0.303D-02 0.562D+00 0.435D+00
 Gap=     0.215 Goal=   None    Shift=    0.000
 RMSDP=2.95D-04 MaxDP=2.26D-03 DE= 1.87D-05 OVMax= 3.93D-03

 Cycle   4  Pass 0  IDiag  1:
 E= -114.461107262576     Delta-E=       -0.000061098291 Rises=F Damp=F AM=F Ri=F Fa=F
 DIIS: error= 2.42D-04 at cycle   4 NSaved=   4.
 NSaved= 4 IEnMin= 4 EnMin= -114.461107262576     IErMin= 4 ErrMin= 2.42D-04
 ErrMax= 2.42D-04  0.00D+00 EMaxC= 1.00D-01 BMatC= 5.35D-07 BMatP= 2.88D-05
 Rises=F IDIUse=3 WtCom= 1.00D+00 WtEn= 3.76D-04
 Coeff-Com: -0.129D-01 0.231D+00 0.203D+00 0.580D+00
 Coeff-En:   0.000D+00 0.000D+00 0.000D+00 0.100D+01
 Coeff:     -0.129D-01 0.230D+00 0.203D+00 0.580D+00
 Gap=     0.215 Goal=   None    Shift=    0.000
 RMSDP=4.76D-05 MaxDP=3.47D-04 DE=-6.11D-05 OVMax= 3.18D-04

 Cycle   5  Pass 0  IDiag  1:
 E= -114.461108414100     Delta-E=       -0.000001151524 Rises=F Damp=F AM=F Ri=F Fa=F
 DIIS: error= 2.76D-05 at cycle   5 NSaved=   5.
 NSaved= 5 IEnMin= 5 EnMin= -114.461108414100     IErMin= 5 ErrMin= 2.76D-05
 ErrMax= 2.76D-05  0.00D+00 EMaxC= 1.00D-01 BMatC= 7.92D-09 BMatP= 5.35D-07
 Rises=F IDIUse=1 WtCom= 1.00D+00 WtEn= 0.00D+00
 Coeff-Com: -0.176D-02 0.111D-01 0.212D-01 0.845D-01 0.885D+00
 Coeff:     -0.176D-02 0.111D-01 0.212D-01 0.845D-01 0.885D+00
 Gap=     0.215 Goal=   None    Shift=    0.000
 RMSDP=9.92D-06 MaxDP=4.97D-05 DE=-1.15D-06 OVMax= 6.53D-05

 Initial convergence to 1.0D-05 achieved.  Increase integral accuracy.
 Cycle   6  Pass 1  IDiag  1:
 E= -114.461108911494     Delta-E=       -0.000000497394 Rises=F Damp=F AM=F Ri=F Fa=F
 DIIS: error= 5.90D-06 at cycle   1 NSaved=   1.
 NSaved= 1 IEnMin= 1 EnMin= -114.461108911494     IErMin= 1 ErrMin= 5.90D-06
 ErrMax= 5.90D-06  0.00D+00 EMaxC= 1.00D-01 BMatC= 2.31D-10 BMatP= 2.31D-10
 Rises=F IDIUse=1 WtCom= 1.00D+00 WtEn= 0.00D+00
 Coeff-Com:  0.100D+01
 Coeff:      0.100D+01
 Gap=     0.215 Goal=   None    Shift=    0.000
 RMSDP=9.92D-06 MaxDP=4.97D-05 DE=-4.97D-07 OVMax= 3.27D-05

 Cycle   7  Pass 1  IDiag  1:
 E= -114.461108909784     Delta-E=        0.000000001710 Rises=F Damp=F AM=F Ri=F Fa=F
 DIIS: error= 1.38D-05 at cycle   2 NSaved=   2.
 NSaved= 2 IEnMin= 1 EnMin= -114.461108911494     IErMin= 1 ErrMin= 5.90D-06
 ErrMax= 1.38D-05  0.00D+00 EMaxC= 1.00D-01 BMatC= 1.34D-09 BMatP= 2.31D-10
 Rises=F IDIUse=1 WtCom= 1.00D+00 WtEn= 0.00D+00
 Coeff-Com:  0.711D+00 0.289D+00
 Coeff:      0.711D+00 0.289D+00
 Gap=     0.215 Goal=   None    Shift=    0.000
 RMSDP=1.66D-06 MaxDP=1.27D-05 DE= 1.71D-09 OVMax= 2.17D-05

 Cycle   8  Pass 1  IDiag  1:
 E= -114.461108911954     Delta-E=       -0.000000002169 Rises=F Damp=F AM=F Ri=F Fa=F
 DIIS: error= 3.79D-07 at cycle   3 NSaved=   3.
 NSaved= 3 IEnMin= 3 EnMin= -114.461108911954     IErMin= 3 ErrMin= 3.79D-07
 ErrMax= 3.79D-07  0.00D+00 EMaxC= 1.00D-01 BMatC= 1.23D-12 BMatP= 2.31D-10
 Rises=F IDIUse=1 WtCom= 1.00D+00 WtEn= 0.00D+00
 Coeff-Com:  0.135D+00 0.423D-01 0.822D+00
 Coeff:      0.135D+00 0.423D-01 0.822D+00
 Gap=     0.215 Goal=   None    Shift=    0.000
 RMSDP=1.71D-07 MaxDP=8.50D-07 DE=-2.17D-09 OVMax= 1.08D-06

 Cycle   9  Pass 1  IDiag  1:
 E= -114.461108911957     Delta-E=       -0.000000000003 Rises=F Damp=F AM=F Ri=F Fa=F
 DIIS: error= 1.32D-07 at cycle   4 NSaved=   4.
 NSaved= 4 IEnMin= 4 EnMin= -114.461108911957     IErMin= 4 ErrMin= 1.32D-07
 ErrMax= 1.32D-07  0.00D+00 EMaxC= 1.00D-01 BMatC= 1.85D-13 BMatP= 1.23D-12
 Rises=F IDIUse=1 WtCom= 1.00D+00 WtEn= 0.00D+00
 Coeff-Com:  0.327D-01 0.967D-02 0.328D+00 0.630D+00
 Coeff:      0.327D-01 0.967D-02 0.328D+00 0.630D+00
 Gap=     0.215 Goal=   None    Shift=    0.000
 RMSDP=2.83D-08 MaxDP=2.08D-07 DE=-3.33D-12 OVMax= 1.92D-07

 Cycle  10  Pass 1  IDiag  1:
 E= -114.461108911957     Delta-E=       -0.000000000000 Rises=F Damp=F AM=F Ri=F Fa=F
 DIIS: error= 4.91D-08 at cycle   5 NSaved=   5.
 NSaved= 5 IEnMin= 5 EnMin= -114.461108911957     IErMin= 5 ErrMin= 4.91D-08
 ErrMax= 4.91D-08  0.00D+00 EMaxC= 1.00D-01 BMatC= 1.64D-14 BMatP= 1.85D-13
 Rises=F IDIUse=1 WtCom= 1.00D+00 WtEn= 0.00D+00
 Coeff-Com: -0.698D-02 0.612D-03-0.152D-01 0.903D-01 0.931D+00
 Coeff:     -0.698D-02 0.612D-03-0.152D-01 0.903D-01 0.931D+00
 Gap=     0.215 Goal=   None    Shift=    0.000
 RMSDP=7.78D-09 MaxDP=4.10D-08 DE=-2.84D-13 OVMax= 8.91D-08

 SCF Done:  E(RB3LYP) =  -114.461108912     A.U. after   10 cycles
            NFock= 10  Conv=0.78D-08     -V/T= 2.0056
 KE=         113.818596 PE=        -330.290712 EE=          71.155166
 Leave Link  502 at Wed Jul 30 07:40:14 2025, MaxMem= 12348030976 cpu:               4.4 elap:               0.1
 (Enter /home/hhratchian/gaussian/gdv-20250101-j30+/gdv/l701.exe)
 ... and contract with generalized density number  0.
 Compute integral first derivatives.
 Leave Link  701 at Wed Jul 30 07:40:14 2025, MaxMem= 12348030976 cpu:               2.0 elap:               0.1
 (Enter /home/hhratchian/gaussian/gdv-20250101-j30+/gdv/l702.exe)
 L702 exits ... SP integral derivatives will be done elsewhere.
 Leave Link  702 at Wed Jul 30 07:40:14 2025, MaxMem= 12348030976 cpu:               0.1 elap:               0.0
 (Enter /home/hhratchian/gaussian/gdv-20250101-j30+/gdv/l703.exe)
 Integral derivatives from FoFJK, PRISM(SPDF).
 Compute integral first derivatives, UseDBF=F ICtDFT=           0.
 Calling FoFJK, ICntrl=      2127 FMM=F ISym2X=1 I1Cent= 0 IOpClX= 0 NMat=1 NMatS=1 NMatT=0.
 FoFJK:  IHMeth= 1 ICntrl=    2127 DoSepK=F KAlg= 0 I1Cent=           0 FoldK=F
 IRaf=         0 NMat=       1 IRICut=       1 DoRegI=T DoRafI=F ISym2E= 1 IDoP0=0 IntGTp=1.
 FoFCou: FMM=F IPFlag=           0 FMFlag=      100000 FMFlg1=         800
         NFxFlg=           0 DoJE=F BraDBF=F KetDBF=F FulRan=T
         wScrn=  0.000000 ICntrl=      2127 IOpCl=  0 I1Cent=           0 NGrid=           0
         NMat0=    1 NMatS0=      1 NMatT0=    0 NMatD0=    1 NMtDS0=    0 NMtDT0=    0
 Petite list used in FoFCou.
 Leave Link  703 at Wed Jul 30 07:40:14 2025, MaxMem= 12348030976 cpu:               3.0 elap:               0.1
 (Enter /home/hhratchian/gaussian/gdv-20250101-j30+/gdv/l716.exe)
 Dipole        =-1.82739025D-17 6.66133815D-16-9.65972063D-01
 ***** Axes restored to original set *****
 -------------------------------------------------------------------
 Center     Atomic                   Forces (Hartrees/Bohr)
 Number     Number              X              Y              Z
 -------------------------------------------------------------------
      1        6          -0.000000000    0.000000000   -0.007017681
      2        8          -0.000000000   -0.000000000    0.004652869
      3        1           0.000000000   -0.000458572    0.001182406
      4        1           0.000000000    0.000458572    0.001182406
 -------------------------------------------------------------------
 Cartesian Forces:  Max     0.007017681 RMS     0.002485186
 Leave Link  716 at Wed Jul 30 07:40:15 2025, MaxMem= 12348030976 cpu:               0.1 elap:               0.0
 (Enter /home/hhratchian/gaussian/gdv-20250101-j30+/gdv/l103.exe)

 GradGradGradGradGradGradGradGradGradGradGradGradGradGradGradGradGradGrad
 Berny optimization.
 Using GEDIIS/GDIIS optimizer.
 FormGI is forming the generalized inverse of G from B-inverse, IUseBI=4.
 NTrRot=    -1 NTRed=     7 NAtoms=     4 NSkip=     1 NRank=     6 IsLin=F EigSml=7.4468D-01
 Internal  Forces:  Max     0.004652869 RMS     0.001904061
 Search for a local minimum.
 Step number   2 out of a maximum of   20
 All quantities printed in internal units (Hartrees-Bohrs-Radians)
 RMS Force = .19041D-02 SwitMx=.10000D-02 MixMth= 1
 Mixed Optimization -- RFO/linear search
 Update second derivatives using D2CorX and points    1    2
 DE= -7.12D-04 DEPred=-6.46D-04 R= 1.10D+00
 TightC=F SS=  1.41D+00  RLast= 4.22D-02 DXNew= 5.0454D-01 1.2659D-01
 Trust test= 1.10D+00 RLast= 4.22D-02 DXMaxT set to 3.00D-01
 The second derivative matrix:
                          R1        R2        R3        A1        A2
           R1           0.86198
           R2           0.02788   0.32153
           R3           0.02788  -0.00399   0.32153
           A1           0.01303  -0.00044  -0.00044   0.16167
           A2           0.01303  -0.00044  -0.00044   0.00167   0.16167
           A3          -0.02607   0.00089   0.00089  -0.00334  -0.00334
           D1          -0.00000   0.00000   0.00000  -0.00000  -0.00000
                          A3        D1
           A3           0.16668
           D1           0.00000   0.04205
 ITU=  1  0
 Use linear search instead of GDIIS.
     Eigenvalues ---    0.04205   0.16000   0.16848   0.31480   0.32552
     Eigenvalues ---    0.86627
 RFO step:  Lambda=-2.45780021D-05 EMin= 4.20511613D-02
 Quartic linear search produced a step of  0.14288.
 GrdOpt: GIC=T ITstSp=  0 NP=   2 DidLin=T DidDIS=F IDoGRo=0 IDoRot=0
         ISwap=1 XLin= 0.143 DXMaxT= 0.300
 Iteration  1 RMS(Cart)=  0.00189979 RMS(Int)=  0.00000843
 Iteration  2 RMS(Cart)=  0.00000691 RMS(Int)=  0.00000000
 Iteration  3 RMS(Cart)=  0.00000000 RMS(Int)=  0.00000000
 ClnCor:  largest displacement from symmetrization is 1.63D-14 for atom     1.
 Variable       Old X    -DE/DX   Delta X   Delta X   Delta X     New X
                                 (Linear)    (Quad)   (Total)
    R1        2.32047   0.00465   0.00484   0.00131   0.00615   2.32662
    R2        2.08788  -0.00102  -0.00151  -0.00244  -0.00395   2.08393
    R3        2.08788  -0.00102  -0.00151  -0.00244  -0.00395   2.08393
    A1        2.13706  -0.00052   0.00118  -0.00451  -0.00333   2.13373
    A2        2.13706  -0.00052   0.00118  -0.00451  -0.00333   2.13373
    A3        2.00906   0.00105  -0.00235   0.00901   0.00666   2.01572
    D1        3.14159   0.00000   0.00000   0.00000   0.00000   3.14159
         Item               Value     Threshold  Converged?
 Maximum Force            0.004653     0.000450     NO 
 RMS     Force            0.001904     0.000300     NO 
 Maximum Displacement     0.005527     0.001800     NO 
 RMS     Displacement     0.002486     0.001200     NO 
 Predicted change in Energy=-2.325273D-05
 Lowest energy point so far.  Saving SCF results.
 GradGradGradGradGradGradGradGradGradGradGradGradGradGradGradGradGradGrad

 Leave Link  103 at Wed Jul 30 07:40:15 2025, MaxMem= 12348030976 cpu:               0.3 elap:               0.0
 (Enter /home/hhratchian/gaussian/gdv-20250101-j30+/gdv/l202.exe)
                          Input orientation:                          
 ---------------------------------------------------------------------
 Center     Atomic      Atomic             Coordinates (Angstroms)
 Number     Number       Type             X           Y           Z
 ---------------------------------------------------------------------
      1          6           0        0.000000   -0.000000   -0.005040
      2          8           0       -0.000000    0.000000    1.226155
      3          1           0        0.000000    0.932601   -0.593557
      4          1           0       -0.000000   -0.932601   -0.593557
 ---------------------------------------------------------------------
                    Distance matrix (angstroms):
                    1          2          3          4
     1  C    0.000000
     2  O    1.231195   0.000000
     3  H    1.102768   2.044773   0.000000
     4  H    1.102768   2.044773   1.865203   0.000000
 Stoichiometry    CH2O
 Framework group  C2V[C2(CO),SGV(H2)]
 Deg. of freedom     3
 Full point group                 C2V     NOp   4
 RotChk:  IX=0 Diff= 5.77D-16
 Largest Abelian subgroup         C2V     NOp   4
 Largest concise Abelian subgroup C2      NOp   2
                         Standard orientation:                         
 ---------------------------------------------------------------------
 Center     Atomic      Atomic             Coordinates (Angstroms)
 Number     Number       Type             X           Y           Z
 ---------------------------------------------------------------------
      1          6           0       -0.000000   -0.000000   -0.542033
      2          8           0        0.000000    0.000000    0.689162
      3          1           0       -0.000000    0.932601   -1.130550
      4          1           0       -0.000000   -0.932601   -1.130550
 ---------------------------------------------------------------------
 Rotational constants (GHZ):         288.2770478          37.3486013          33.0647925
 Leave Link  202 at Wed Jul 30 07:40:15 2025, MaxMem= 12348030976 cpu:               0.3 elap:               0.0
 (Enter /home/hhratchian/gaussian/gdv-20250101-j30+/gdv/local/l301.exe)
 Standard basis: 6-31G (6D, 7F)
 Ernie: Thresh=  0.10000D-02 Tol=  0.10000D-05 Strict=F.
 There are    12 symmetry adapted cartesian basis functions of A1  symmetry.
 There are     0 symmetry adapted cartesian basis functions of A2  symmetry.
 There are     4 symmetry adapted cartesian basis functions of B1  symmetry.
 There are     6 symmetry adapted cartesian basis functions of B2  symmetry.
 There are    12 symmetry adapted basis functions of A1  symmetry.
 There are     0 symmetry adapted basis functions of A2  symmetry.
 There are     4 symmetry adapted basis functions of B1  symmetry.
 There are     6 symmetry adapted basis functions of B2  symmetry.
    22 basis functions,    52 primitive gaussians,    22 cartesian basis functions
     8 alpha electrons        8 beta electrons
       nuclear repulsion energy        30.8135547146 Hartrees.
 IExCor=      4002 DFT=T Ex+Corr=B3LYP ScaHFX=  0.200000
 ScaDFX=  0.800000  0.720000  1.000000  0.810000  1.000000  0.000000
 ScaDFX=  0.000000  0.000000  0.000000  0.000000  0.000000  0.000000
 Grid=UltraFine IRanWt=     -1 IRanGd=            0 ICorTp=0 IEDCtl=  2004
 NAtoms=    4 NActive=    4 NUniq=    3 SFac= 1.78D+00 NAtFMM=   60 NAOKFM=F Big=F
 Integral buffers will be    131072 words long.
 Raffenetti 2 integral format.
 Two-electron integral symmetry is turned on.
 Leave Link  301 at Wed Jul 30 07:40:15 2025, MaxMem= 12348030976 cpu:               0.2 elap:               0.1
 (Enter /home/hhratchian/gaussian/gdv-20250101-j30+/gdv/l302.exe)
 NPDir=0 NMtPBC=     1 NCelOv=     1 NCel=       1 NClECP=     1 NCelD=      1
         NCelK=      1 NCelE2=     1 NClLst=     1 CellRange=     0.0.
 One-electron integrals computed using PRISM.
 One-electron integral symmetry used in STVInt
 NBasis=    22 RedAO= T EigKep=  2.41D-02  NBF=    12     0     4     6
 NBsUse=    22 1.00D-06 EigRej= -1.00D+00 NBFU=    12     0     4     6
 Precomputing XC quadrature grid using
 IXCGrd=   9 Grid=UltraFine IRanWt=          -1 IRanGd=           0 AccXCQ= 0.00D+00.
 Generated NRdTot=       0 NPtTot=       90200 NUsed=           0 NTot=          64
 NSgBfM=    22    22    22    22    22 MxSgAt=     4 MxSgA2=     4 SizInc=   0.000
 NMBTot=      830 MaxBatPerAtom=       82 MaxMicBPerAtom=      212 NBfPt=             1716062.
 Leave Link  302 at Wed Jul 30 07:40:15 2025, MaxMem= 12348030976 cpu:               2.1 elap:               0.1
 (Enter /home/hhratchian/gaussian/gdv-20250101-j30+/gdv/l303.exe)
 DipDrv:  MaxL=1.
 Leave Link  303 at Wed Jul 30 07:40:15 2025, MaxMem= 12348030976 cpu:               0.2 elap:               0.0
 (Enter /home/hhratchian/gaussian/gdv-20250101-j30+/gdv/l401.exe)
 Initial guess from the checkpoint file:  "ch2o_neutral.chk"
 B after Tr=    -0.000000   -0.000000    0.000000
         Rot=    1.000000    0.000000   -0.000000    0.000000 Ang=   0.00 deg.
 AO Guess basis will be translated and rotated to current coordinates.
 JPrj=2 DoOrth=T DoCkMO=T.
 Initial guess orbital symmetries:
       Occupied  (A1) (A1) (A1) (A1) (B2) (A1) (B1) (B2)
       Virtual   (B1) (A1) (B2) (A1) (B1) (B2) (A1) (A1) (B2) (A1)
                 (A1) (B1) (B2) (A1)
 The electronic state of the initial guess is 1-A1.
 Leave Link  401 at Wed Jul 30 07:40:15 2025, MaxMem= 12348030976 cpu:               0.4 elap:               0.1
 (Enter /home/hhratchian/gaussian/gdv-20250101-j30+/gdv/local/l502.exe)
 Keep R1 ints in memory in symmetry-blocked form, NReq=48443327.
 FoFCou: FMM=F IPFlag=           0 FMFlag=           0 FMFlg1=           0
         NFxFlg=           0 DoJE=F BraDBF=F KetDBF=F FulRan=T
         wScrn=  0.000000 ICntrl=       600 IOpCl=  0 I1Cent=           0 NGrid=           0
         NMat0=    1 NMatS0=    253 NMatT0=    0 NMatD0=    1 NMtDS0=    0 NMtDT0=    0
 Petite list used in FoFCou.
 Closed shell SCF:
 Using DIIS extrapolation, IDIIS=  1040.
 NGot= 12348030976 LenX= 12348016719 LenY= 12348015794
 Requested convergence on RMS density matrix=1.00D-08 within 128 cycles.
 Requested convergence on MAX density matrix=1.00D-06.
 Requested convergence on             energy=1.00D-06.
 No special actions if energy rises.
 
  Hrant - CycOpn.
 

 Cycle   1  Pass 1  IDiag  1:
 E= -114.461123821555    
 DIIS: error= 5.41D-04 at cycle   1 NSaved=   1.
 NSaved= 1 IEnMin= 1 EnMin= -114.461123821555     IErMin= 1 ErrMin= 5.41D-04
 ErrMax= 5.41D-04  0.00D+00 EMaxC= 1.00D-01 BMatC= 4.08D-06 BMatP= 4.08D-06
 Rises=F IDIUse=3 WtCom= 9.99D-01 WtEn= 1.26D-03
 Coeff-Com:  0.100D+01
 Coeff-En:   0.100D+01
 Coeff:      0.100D+01
 Gap=     0.214 Goal=   None    Shift=    0.000
 RMSDP=2.19D-04 MaxDP=1.19D-03              OVMax= 1.54D-03

 Cycle   2  Pass 1  IDiag  1:
 E= -114.461130427323     Delta-E=       -0.000006605768 Rises=F Damp=F AM=F Ri=F Fa=F
 DIIS: error= 6.65D-04 at cycle   2 NSaved=   2.
 NSaved= 2 IEnMin= 2 EnMin= -114.461130427323     IErMin= 1 ErrMin= 5.41D-04
 ErrMax= 6.65D-04  0.00D+00 EMaxC= 1.00D-01 BMatC= 3.56D-06 BMatP= 4.08D-06
 Rises=F IDIUse=3 WtCom= 9.98D-01 WtEn= 1.72D-03
 Coeff-Com:  0.476D+00 0.524D+00
 Coeff-En:   0.366D-01 0.963D+00
 Coeff:      0.475D+00 0.525D+00
 Gap=     0.215 Goal=   None    Shift=    0.000
 RMSDP=1.42D-04 MaxDP=1.14D-03 DE=-6.61D-06 OVMax= 1.87D-03

 Cycle   3  Pass 1  IDiag  1:
 E= -114.461132547415     Delta-E=       -0.000002120092 Rises=F Damp=F AM=F Ri=F Fa=F
 DIIS: error= 5.39D-04 at cycle   3 NSaved=   3.
 NSaved= 3 IEnMin= 3 EnMin= -114.461132547415     IErMin= 3 ErrMin= 5.39D-04
 ErrMax= 5.39D-04  0.00D+00 EMaxC= 1.00D-01 BMatC= 1.98D-06 BMatP= 3.56D-06
 Rises=F IDIUse=3 WtCom= 9.99D-01 WtEn= 1.25D-03
 Coeff-Com: -0.109D-01 0.428D+00 0.583D+00
 Coeff-En:   0.000D+00 0.411D+00 0.589D+00
 Coeff:     -0.108D-01 0.428D+00 0.583D+00
 Gap=     0.215 Goal=   None    Shift=    0.000
 RMSDP=7.32D-05 MaxDP=5.45D-04 DE=-2.12D-06 OVMax= 9.76D-04

 Cycle   4  Pass 1  IDiag  1:
 E= -114.461135789324     Delta-E=       -0.000003241909 Rises=F Damp=F AM=F Ri=F Fa=F
 DIIS: error= 4.34D-05 at cycle   4 NSaved=   4.
 NSaved= 4 IEnMin= 4 EnMin= -114.461135789324     IErMin= 4 ErrMin= 4.34D-05
 ErrMax= 4.34D-05  0.00D+00 EMaxC= 1.00D-01 BMatC= 1.49D-08 BMatP= 1.98D-06
 Rises=F IDIUse=1 WtCom= 1.00D+00 WtEn= 0.00D+00
 Coeff-Com: -0.128D-01 0.123D+00 0.220D+00 0.669D+00
 Coeff:     -0.128D-01 0.123D+00 0.220D+00 0.669D+00
 Gap=     0.215 Goal=   None    Shift=    0.000
 RMSDP=6.09D-06 MaxDP=4.68D-05 DE=-3.24D-06 OVMax= 7.39D-05

 Cycle   5  Pass 1  IDiag  1:
 E= -114.461135817980     Delta-E=       -0.000000028656 Rises=F Damp=F AM=F Ri=F Fa=F
 DIIS: error= 6.41D-06 at cycle   5 NSaved=   5.
 NSaved= 5 IEnMin= 5 EnMin= -114.461135817980     IErMin= 5 ErrMin= 6.41D-06
 ErrMax= 6.41D-06  0.00D+00 EMaxC= 1.00D-01 BMatC= 5.32D-10 BMatP= 1.49D-08
 Rises=F IDIUse=1 WtCom= 1.00D+00 WtEn= 0.00D+00
 Coeff-Com: -0.204D-02 0.557D-02 0.325D-01 0.210D+00 0.754D+00
 Coeff:     -0.204D-02 0.557D-02 0.325D-01 0.210D+00 0.754D+00
 Gap=     0.215 Goal=   None    Shift=    0.000
 RMSDP=2.23D-06 MaxDP=1.21D-05 DE=-2.87D-08 OVMax= 1.49D-05

 Cycle   6  Pass 1  IDiag  1:
 E= -114.461135819039     Delta-E=       -0.000000001059 Rises=F Damp=F AM=F Ri=F Fa=F
 DIIS: error= 7.85D-07 at cycle   6 NSaved=   6.
 NSaved= 6 IEnMin= 6 EnMin= -114.461135819039     IErMin= 6 ErrMin= 7.85D-07
 ErrMax= 7.85D-07  0.00D+00 EMaxC= 1.00D-01 BMatC= 4.37D-12 BMatP= 5.32D-10
 Rises=F IDIUse=1 WtCom= 1.00D+00 WtEn= 0.00D+00
 Coeff-Com:  0.553D-06-0.193D-02-0.185D-02 0.837D-02 0.103D+00 0.893D+00
 Coeff:      0.553D-06-0.193D-02-0.185D-02 0.837D-02 0.103D+00 0.893D+00
 Gap=     0.215 Goal=   None    Shift=    0.000
 RMSDP=1.75D-07 MaxDP=8.49D-07 DE=-1.06D-09 OVMax= 1.75D-06

 Cycle   7  Pass 1  IDiag  1:
 E= -114.461135819050     Delta-E=       -0.000000000011 Rises=F Damp=F AM=F Ri=F Fa=F
 DIIS: error= 2.10D-08 at cycle   7 NSaved=   7.
 NSaved= 7 IEnMin= 7 EnMin= -114.461135819050     IErMin= 7 ErrMin= 2.10D-08
 ErrMax= 2.10D-08  0.00D+00 EMaxC= 1.00D-01 BMatC= 5.26D-15 BMatP= 4.37D-12
 Rises=F IDIUse=1 WtCom= 1.00D+00 WtEn= 0.00D+00
 Coeff-Com:  0.161D-04-0.402D-04-0.208D-03-0.187D-02-0.421D-02-0.225D-01
 Coeff-Com:  0.103D+01
 Coeff:      0.161D-04-0.402D-04-0.208D-03-0.187D-02-0.421D-02-0.225D-01
 Coeff:      0.103D+01
 Gap=     0.215 Goal=   None    Shift=    0.000
 RMSDP=1.13D-08 MaxDP=5.72D-08 DE=-1.07D-11 OVMax= 6.15D-08

 Cycle   8  Pass 1  IDiag  1:
 E= -114.461135819050     Delta-E=        0.000000000000 Rises=F Damp=F AM=F Ri=F Fa=F
 DIIS: error= 4.21D-09 at cycle   8 NSaved=   8.
 NSaved= 8 IEnMin= 7 EnMin= -114.461135819050     IErMin= 8 ErrMin= 4.21D-09
 ErrMax= 4.21D-09  0.00D+00 EMaxC= 1.00D-01 BMatC= 2.10D-16 BMatP= 5.26D-15
 Rises=F IDIUse=1 WtCom= 1.00D+00 WtEn= 0.00D+00
 Coeff-Com: -0.101D-05 0.905D-05 0.270D-04 0.340D-04-0.108D-03-0.290D-02
 Coeff-Com: -0.571D-01 0.106D+01
 Coeff:     -0.101D-05 0.905D-05 0.270D-04 0.340D-04-0.108D-03-0.290D-02
 Coeff:     -0.571D-01 0.106D+01
 Gap=     0.215 Goal=   None    Shift=    0.000
 RMSDP=1.27D-09 MaxDP=6.70D-09 DE= 1.42D-13 OVMax= 6.35D-09

 SCF Done:  E(RB3LYP) =  -114.461135819     A.U. after    8 cycles
            NFock=  8  Conv=0.13D-08     -V/T= 2.0057
 KE=         113.813245 PE=        -330.208501 EE=          71.120565
 Leave Link  502 at Wed Jul 30 07:40:15 2025, MaxMem= 12348030976 cpu:               4.0 elap:               0.1
 (Enter /home/hhratchian/gaussian/gdv-20250101-j30+/gdv/l701.exe)
 ... and contract with generalized density number  0.
 Compute integral first derivatives.
 Leave Link  701 at Wed Jul 30 07:40:15 2025, MaxMem= 12348030976 cpu:               2.2 elap:               0.1
 (Enter /home/hhratchian/gaussian/gdv-20250101-j30+/gdv/l702.exe)
 L702 exits ... SP integral derivatives will be done elsewhere.
 Leave Link  702 at Wed Jul 30 07:40:15 2025, MaxMem= 12348030976 cpu:               0.2 elap:               0.0
 (Enter /home/hhratchian/gaussian/gdv-20250101-j30+/gdv/l703.exe)
 Integral derivatives from FoFJK, PRISM(SPDF).
 Compute integral first derivatives, UseDBF=F ICtDFT=           0.
 Calling FoFJK, ICntrl=      2127 FMM=F ISym2X=1 I1Cent= 0 IOpClX= 0 NMat=1 NMatS=1 NMatT=0.
 FoFJK:  IHMeth= 1 ICntrl=    2127 DoSepK=F KAlg= 0 I1Cent=           0 FoldK=F
 IRaf=         0 NMat=       1 IRICut=       1 DoRegI=T DoRafI=F ISym2E= 1 IDoP0=0 IntGTp=1.
 FoFCou: FMM=F IPFlag=           0 FMFlag=      100000 FMFlg1=         800
         NFxFlg=           0 DoJE=F BraDBF=F KetDBF=F FulRan=T
         wScrn=  0.000000 ICntrl=      2127 IOpCl=  0 I1Cent=           0 NGrid=           0
         NMat0=    1 NMatS0=      1 NMatT0=    0 NMatD0=    1 NMtDS0=    0 NMtDT0=    0
 Petite list used in FoFCou.
 Leave Link  703 at Wed Jul 30 07:40:15 2025, MaxMem= 12348030976 cpu:               3.0 elap:               0.1
 (Enter /home/hhratchian/gaussian/gdv-20250101-j30+/gdv/l716.exe)
 Dipole        =-1.84866557D-17 0.00000000D+00-9.71390125D-01
 ***** Axes restored to original set *****
 -------------------------------------------------------------------
 Center     Atomic                   Forces (Hartrees/Bohr)
 Number     Number              X              Y              Z
 -------------------------------------------------------------------
      1        6          -0.000000000   -0.000000000   -0.000913642
      2        8          -0.000000000   -0.000000000    0.000344216
      3        1           0.000000000    0.000145214    0.000284713
      4        1           0.000000000   -0.000145214    0.000284713
 -------------------------------------------------------------------
 Cartesian Forces:  Max     0.000913642 RMS     0.000310581
 Leave Link  716 at Wed Jul 30 07:40:15 2025, MaxMem= 12348030976 cpu:               0.1 elap:               0.0
 (Enter /home/hhratchian/gaussian/gdv-20250101-j30+/gdv/l103.exe)

 GradGradGradGradGradGradGradGradGradGradGradGradGradGradGradGradGradGrad
 Berny optimization.
 Using GEDIIS/GDIIS optimizer.
 FormGI is forming the generalized inverse of G from B-inverse, IUseBI=4.
 NTrRot=    -1 NTRed=     7 NAtoms=     4 NSkip=     1 NRank=     6 IsLin=F EigSml=7.4303D-01
 Internal  Forces:  Max     0.000442177 RMS     0.000243035
 Search for a local minimum.
 Step number   3 out of a maximum of   20
 All quantities printed in internal units (Hartrees-Bohrs-Radians)
 RMS Force = .24304D-03 SwitMx=.10000D-02 MixMth= 2
 Mixed Optimization -- En-DIIS/RFO-DIIS
 Update second derivatives using D2CorX and points    1    2    3
 DE= -2.69D-05 DEPred=-2.33D-05 R= 1.16D+00
 TightC=F SS=  1.41D+00  RLast= 1.16D-02 DXNew= 5.0454D-01 3.4923D-02
 Trust test= 1.16D+00 RLast= 1.16D-02 DXMaxT set to 3.00D-01
 The second derivative matrix:
                          R1        R2        R3        A1        A2
           R1           0.84073
           R2           0.02990   0.32166
           R3           0.02990  -0.00386   0.32166
           A1           0.03131  -0.00395  -0.00395   0.15966
           A2           0.03131  -0.00395  -0.00395  -0.00034   0.15966
           A3          -0.06261   0.00789   0.00789   0.00069   0.00069
           D1           0.00000  -0.00000  -0.00000  -0.00000  -0.00000
                          A3        D1
           A3           0.15862
           D1           0.00000   0.04205
 ITU=  1  1  0
 Use linear search instead of GDIIS.
     Eigenvalues ---    0.04205   0.14745   0.16000   0.31671   0.32552
     Eigenvalues ---    0.85231
 RFO step:  Lambda=-1.24353572D-06 EMin= 4.20511613D-02
 Quartic linear search produced a step of  0.16873.
 GrdOpt: GIC=T ITstSp=  0 NP=   3 DidLin=T DidDIS=F IDoGRo=0 IDoRot=0
         ISwap=1 XLin= 0.169 DXMaxT= 0.300
 Iteration  1 RMS(Cart)=  0.00097163 RMS(Int)=  0.00000140
 Iteration  2 RMS(Cart)=  0.00000102 RMS(Int)=  0.00000000
 Iteration  3 RMS(Cart)=  0.00000000 RMS(Int)=  0.00000000
 ClnCor:  largest displacement from symmetrization is 1.57D-14 for atom     1.
 Variable       Old X    -DE/DX   Delta X   Delta X   Delta X     New X
                                 (Linear)    (Quad)   (Total)
    R1        2.32662   0.00034   0.00104  -0.00025   0.00078   2.32741
    R2        2.08393  -0.00003  -0.00067   0.00038  -0.00029   2.08364
    R3        2.08393  -0.00003  -0.00067   0.00038  -0.00029   2.08364
    A1        2.13373  -0.00022  -0.00056  -0.00102  -0.00158   2.13216
    A2        2.13373  -0.00022  -0.00056  -0.00102  -0.00158   2.13216
    A3        2.01572   0.00044   0.00112   0.00203   0.00315   2.01887
    D1        3.14159   0.00000   0.00000   0.00000   0.00000   3.14159
         Item               Value     Threshold  Converged?
 Maximum Force            0.000442     0.000450     YES
 RMS     Force            0.000243     0.000300     YES
 Maximum Displacement     0.001663     0.001800     YES
 RMS     Displacement     0.001272     0.001200     NO 
 Predicted change in Energy=-1.182764D-06
 Lowest energy point so far.  Saving SCF results.
 GradGradGradGradGradGradGradGradGradGradGradGradGradGradGradGradGradGrad

 Leave Link  103 at Wed Jul 30 07:40:15 2025, MaxMem= 12348030976 cpu:               0.3 elap:               0.0
 (Enter /home/hhratchian/gaussian/gdv-20250101-j30+/gdv/l202.exe)
                          Input orientation:                          
 ---------------------------------------------------------------------
 Center     Atomic      Atomic             Coordinates (Angstroms)
 Number     Number       Type             X           Y           Z
 ---------------------------------------------------------------------
      1          6           0        0.000000    0.000000   -0.005920
      2          8           0       -0.000000   -0.000000    1.225690
      3          1           0        0.000000    0.933400   -0.592885
      4          1           0       -0.000000   -0.933400   -0.592885
 ---------------------------------------------------------------------
                    Distance matrix (angstroms):
                    1          2          3          4
     1  C    0.000000
     2  O    1.231610   0.000000
     3  H    1.102616   2.044126   0.000000
     4  H    1.102616   2.044126   1.866799   0.000000
 Stoichiometry    CH2O
 Framework group  C2V[C2(CO),SGV(H2)]
 Deg. of freedom     3
 Full point group                 C2V     NOp   4
 RotChk:  IX=0 Diff= 5.24D-16
 Largest Abelian subgroup         C2V     NOp   4
 Largest concise Abelian subgroup C2      NOp   2
                         Standard orientation:                         
 ---------------------------------------------------------------------
 Center     Atomic      Atomic             Coordinates (Angstroms)
 Number     Number       Type             X           Y           Z
 ---------------------------------------------------------------------
      1          6           0        0.000000   -0.000000   -0.542435
      2          8           0       -0.000000    0.000000    0.689176
      3          1           0       -0.000000    0.933400   -1.129399
      4          1           0       -0.000000   -0.933400   -1.129399
 ---------------------------------------------------------------------
 Rotational constants (GHZ):         287.7841397          37.3468742          33.0569450
 Leave Link  202 at Wed Jul 30 07:40:15 2025, MaxMem= 12348030976 cpu:               0.3 elap:               0.0
 (Enter /home/hhratchian/gaussian/gdv-20250101-j30+/gdv/local/l301.exe)
 Standard basis: 6-31G (6D, 7F)
 Ernie: Thresh=  0.10000D-02 Tol=  0.10000D-05 Strict=F.
 There are    12 symmetry adapted cartesian basis functions of A1  symmetry.
 There are     0 symmetry adapted cartesian basis functions of A2  symmetry.
 There are     4 symmetry adapted cartesian basis functions of B1  symmetry.
 There are     6 symmetry adapted cartesian basis functions of B2  symmetry.
 There are    12 symmetry adapted basis functions of A1  symmetry.
 There are     0 symmetry adapted basis functions of A2  symmetry.
 There are     4 symmetry adapted basis functions of B1  symmetry.
 There are     6 symmetry adapted basis functions of B2  symmetry.
    22 basis functions,    52 primitive gaussians,    22 cartesian basis functions
     8 alpha electrons        8 beta electrons
       nuclear repulsion energy        30.8084610833 Hartrees.
 IExCor=      4002 DFT=T Ex+Corr=B3LYP ScaHFX=  0.200000
 ScaDFX=  0.800000  0.720000  1.000000  0.810000  1.000000  0.000000
 ScaDFX=  0.000000  0.000000  0.000000  0.000000  0.000000  0.000000
 Grid=UltraFine IRanWt=     -1 IRanGd=            0 ICorTp=0 IEDCtl=  2004
 NAtoms=    4 NActive=    4 NUniq=    3 SFac= 1.78D+00 NAtFMM=   60 NAOKFM=F Big=F
 Integral buffers will be    131072 words long.
 Raffenetti 2 integral format.
 Two-electron integral symmetry is turned on.
 Leave Link  301 at Wed Jul 30 07:40:16 2025, MaxMem= 12348030976 cpu:               0.2 elap:               0.1
 (Enter /home/hhratchian/gaussian/gdv-20250101-j30+/gdv/l302.exe)
 NPDir=0 NMtPBC=     1 NCelOv=     1 NCel=       1 NClECP=     1 NCelD=      1
         NCelK=      1 NCelE2=     1 NClLst=     1 CellRange=     0.0.
 One-electron integrals computed using PRISM.
 One-electron integral symmetry used in STVInt
 NBasis=    22 RedAO= T EigKep=  2.41D-02  NBF=    12     0     4     6
 NBsUse=    22 1.00D-06 EigRej= -1.00D+00 NBFU=    12     0     4     6
 Precomputing XC quadrature grid using
 IXCGrd=   9 Grid=UltraFine IRanWt=          -1 IRanGd=           0 AccXCQ= 0.00D+00.
 Generated NRdTot=       0 NPtTot=       90174 NUsed=           0 NTot=          64
 NSgBfM=    22    22    22    22    22 MxSgAt=     4 MxSgA2=     4 SizInc=   0.000
 NMBTot=      829 MaxBatPerAtom=       82 MaxMicBPerAtom=      212 NBfPt=             1715773.
 Leave Link  302 at Wed Jul 30 07:40:16 2025, MaxMem= 12348030976 cpu:               2.1 elap:               0.1
 (Enter /home/hhratchian/gaussian/gdv-20250101-j30+/gdv/l303.exe)
 DipDrv:  MaxL=1.
 Leave Link  303 at Wed Jul 30 07:40:16 2025, MaxMem= 12348030976 cpu:               0.2 elap:               0.0
 (Enter /home/hhratchian/gaussian/gdv-20250101-j30+/gdv/l401.exe)
 Initial guess from the checkpoint file:  "ch2o_neutral.chk"
 B after Tr=    -0.000000    0.000000    0.000000
         Rot=    1.000000   -0.000000    0.000000   -0.000000 Ang=   0.00 deg.
 AO Guess basis will be translated and rotated to current coordinates.
 JPrj=2 DoOrth=T DoCkMO=T.
 Initial guess orbital symmetries:
       Occupied  (A1) (A1) (A1) (A1) (B2) (A1) (B1) (B2)
       Virtual   (B1) (A1) (B2) (A1) (B1) (B2) (A1) (A1) (B2) (A1)
                 (A1) (B1) (B2) (A1)
 The electronic state of the initial guess is 1-A1.
 Leave Link  401 at Wed Jul 30 07:40:16 2025, MaxMem= 12348030976 cpu:               0.4 elap:               0.1
 (Enter /home/hhratchian/gaussian/gdv-20250101-j30+/gdv/local/l502.exe)
 Keep R1 ints in memory in symmetry-blocked form, NReq=48443327.
 FoFCou: FMM=F IPFlag=           0 FMFlag=           0 FMFlg1=           0
         NFxFlg=           0 DoJE=F BraDBF=F KetDBF=F FulRan=T
         wScrn=  0.000000 ICntrl=       600 IOpCl=  0 I1Cent=           0 NGrid=           0
         NMat0=    1 NMatS0=    253 NMatT0=    0 NMatD0=    1 NMtDS0=    0 NMtDT0=    0
 Petite list used in FoFCou.
 Closed shell SCF:
 Using DIIS extrapolation, IDIIS=  1040.
 NGot= 12348030976 LenX= 12348016719 LenY= 12348015794
 Requested convergence on RMS density matrix=1.00D-08 within 128 cycles.
 Requested convergence on MAX density matrix=1.00D-06.
 Requested convergence on             energy=1.00D-06.
 No special actions if energy rises.
 
  Hrant - CycOpn.
 

 Cycle   1  Pass 1  IDiag  1:
 E= -114.461136706136    
 DIIS: error= 8.43D-05 at cycle   1 NSaved=   1.
 NSaved= 1 IEnMin= 1 EnMin= -114.461136706136     IErMin= 1 ErrMin= 8.43D-05
 ErrMax= 8.43D-05  0.00D+00 EMaxC= 1.00D-01 BMatC= 1.25D-07 BMatP= 1.25D-07
 Rises=F IDIUse=1 WtCom= 1.00D+00 WtEn= 0.00D+00
 Coeff-Com:  0.100D+01
 Coeff:      0.100D+01
 Gap=     0.214 Goal=   None    Shift=    0.000
 RMSDP=4.01D-05 MaxDP=2.18D-04              OVMax= 2.94D-04

 Cycle   2  Pass 1  IDiag  1:
 E= -114.461136924961     Delta-E=       -0.000000218825 Rises=F Damp=F AM=F Ri=F Fa=F
 DIIS: error= 1.17D-04 at cycle   2 NSaved=   2.
 NSaved= 2 IEnMin= 2 EnMin= -114.461136924961     IErMin= 1 ErrMin= 8.43D-05
 ErrMax= 1.17D-04  0.00D+00 EMaxC= 1.00D-01 BMatC= 1.14D-07 BMatP= 1.25D-07
 Rises=F IDIUse=3 WtCom= 1.00D+00 WtEn= 1.27D-04
 Coeff-Com:  0.485D+00 0.515D+00
 Coeff-En:   0.154D-01 0.985D+00
 Coeff:      0.485D+00 0.515D+00
 Gap=     0.214 Goal=   None    Shift=    0.000
 RMSDP=2.46D-05 MaxDP=1.99D-04 DE=-2.19D-07 OVMax= 3.22D-04

 Cycle   3  Pass 1  IDiag  1:
 E= -114.461137000220     Delta-E=       -0.000000075260 Rises=F Damp=F AM=F Ri=F Fa=F
 DIIS: error= 9.26D-05 at cycle   3 NSaved=   3.
 NSaved= 3 IEnMin= 3 EnMin= -114.461137000220     IErMin= 1 ErrMin= 8.43D-05
 ErrMax= 9.26D-05  0.00D+00 EMaxC= 1.00D-01 BMatC= 5.67D-08 BMatP= 1.14D-07
 Rises=F IDIUse=1 WtCom= 1.00D+00 WtEn= 0.00D+00
 Coeff-Com: -0.982D-02 0.414D+00 0.596D+00
 Coeff:     -0.982D-02 0.414D+00 0.596D+00
 Gap=     0.214 Goal=   None    Shift=    0.000
 RMSDP=1.29D-05 MaxDP=9.55D-05 DE=-7.53D-08 OVMax= 1.74D-04

 Cycle   4  Pass 1  IDiag  1:
 E= -114.461137094297     Delta-E=       -0.000000094077 Rises=F Damp=F AM=F Ri=F Fa=F
 DIIS: error= 9.41D-06 at cycle   4 NSaved=   4.
 NSaved= 4 IEnMin= 4 EnMin= -114.461137094297     IErMin= 4 ErrMin= 9.41D-06
 ErrMax= 9.41D-06  0.00D+00 EMaxC= 1.00D-01 BMatC= 6.48D-10 BMatP= 5.67D-08
 Rises=F IDIUse=1 WtCom= 1.00D+00 WtEn= 0.00D+00
 Coeff-Com: -0.138D-01 0.101D+00 0.218D+00 0.695D+00
 Coeff:     -0.138D-01 0.101D+00 0.218D+00 0.695D+00
 Gap=     0.214 Goal=   None    Shift=    0.000
 RMSDP=1.26D-06 MaxDP=9.15D-06 DE=-9.41D-08 OVMax= 1.54D-05

 Cycle   5  Pass 1  IDiag  1:
 E= -114.461137095514     Delta-E=       -0.000000001217 Rises=F Damp=F AM=F Ri=F Fa=F
 DIIS: error= 1.27D-06 at cycle   5 NSaved=   5.
 NSaved= 5 IEnMin= 5 EnMin= -114.461137095514     IErMin= 5 ErrMin= 1.27D-06
 ErrMax= 1.27D-06  0.00D+00 EMaxC= 1.00D-01 BMatC= 2.20D-11 BMatP= 6.48D-10
 Rises=F IDIUse=1 WtCom= 1.00D+00 WtEn= 0.00D+00
 Coeff-Com: -0.324D-02 0.109D-01 0.509D-01 0.248D+00 0.694D+00
 Coeff:     -0.324D-02 0.109D-01 0.509D-01 0.248D+00 0.694D+00
 Gap=     0.214 Goal=   None    Shift=    0.000
 RMSDP=4.23D-07 MaxDP=2.26D-06 DE=-1.22D-09 OVMax= 2.76D-06

 Cycle   6  Pass 1  IDiag  1:
 E= -114.461137095557     Delta-E=       -0.000000000043 Rises=F Damp=F AM=F Ri=F Fa=F
 DIIS: error= 9.59D-08 at cycle   6 NSaved=   6.
 NSaved= 6 IEnMin= 6 EnMin= -114.461137095557     IErMin= 6 ErrMin= 9.59D-08
 ErrMax= 9.59D-08  0.00D+00 EMaxC= 1.00D-01 BMatC= 7.48D-14 BMatP= 2.20D-11
 Rises=F IDIUse=1 WtCom= 1.00D+00 WtEn= 0.00D+00
 Coeff-Com:  0.119D-03-0.226D-02-0.275D-02-0.771D-02 0.584D-01 0.954D+00
 Coeff:      0.119D-03-0.226D-02-0.275D-02-0.771D-02 0.584D-01 0.954D+00
 Gap=     0.214 Goal=   None    Shift=    0.000
 RMSDP=1.98D-08 MaxDP=1.14D-07 DE=-4.33D-11 OVMax= 1.46D-07

 Cycle   7  Pass 1  IDiag  1:
 E= -114.461137095558     Delta-E=       -0.000000000000 Rises=F Damp=F AM=F Ri=F Fa=F
 DIIS: error= 9.21D-09 at cycle   7 NSaved=   7.
 NSaved= 7 IEnMin= 7 EnMin= -114.461137095558     IErMin= 7 ErrMin= 9.21D-09
 ErrMax= 9.21D-09  0.00D+00 EMaxC= 1.00D-01 BMatC= 1.30D-15 BMatP= 7.48D-14
 Rises=F IDIUse=1 WtCom= 1.00D+00 WtEn= 0.00D+00
 Coeff-Com:  0.160D-04-0.856D-05-0.128D-03-0.176D-02-0.439D-02-0.464D-01
 Coeff-Com:  0.105D+01
 Coeff:      0.160D-04-0.856D-05-0.128D-03-0.176D-02-0.439D-02-0.464D-01
 Coeff:      0.105D+01
 Gap=     0.214 Goal=   None    Shift=    0.000
 RMSDP=2.95D-09 MaxDP=1.51D-08 DE=-2.56D-13 OVMax= 1.47D-08

 SCF Done:  E(RB3LYP) =  -114.461137096     A.U. after    7 cycles
            NFock=  7  Conv=0.29D-08     -V/T= 2.0057
 KE=         113.812495 PE=        -330.199120 EE=          71.117027
 Leave Link  502 at Wed Jul 30 07:40:16 2025, MaxMem= 12348030976 cpu:               3.9 elap:               0.1
 (Enter /home/hhratchian/gaussian/gdv-20250101-j30+/gdv/l701.exe)
 ... and contract with generalized density number  0.
 Compute integral first derivatives.
 Leave Link  701 at Wed Jul 30 07:40:16 2025, MaxMem= 12348030976 cpu:               2.0 elap:               0.1
 (Enter /home/hhratchian/gaussian/gdv-20250101-j30+/gdv/l702.exe)
 L702 exits ... SP integral derivatives will be done elsewhere.
 Leave Link  702 at Wed Jul 30 07:40:16 2025, MaxMem= 12348030976 cpu:               0.2 elap:               0.0
 (Enter /home/hhratchian/gaussian/gdv-20250101-j30+/gdv/l703.exe)
 Integral derivatives from FoFJK, PRISM(SPDF).
 Compute integral first derivatives, UseDBF=F ICtDFT=           0.
 Calling FoFJK, ICntrl=      2127 FMM=F ISym2X=1 I1Cent= 0 IOpClX= 0 NMat=1 NMatS=1 NMatT=0.
 FoFJK:  IHMeth= 1 ICntrl=    2127 DoSepK=F KAlg= 0 I1Cent=           0 FoldK=F
 IRaf=         0 NMat=       1 IRICut=       1 DoRegI=T DoRafI=F ISym2E= 1 IDoP0=0 IntGTp=1.
 FoFCou: FMM=F IPFlag=           0 FMFlag=      100000 FMFlg1=         800
         NFxFlg=           0 DoJE=F BraDBF=F KetDBF=F FulRan=T
         wScrn=  0.000000 ICntrl=      2127 IOpCl=  0 I1Cent=           0 NGrid=           0
         NMat0=    1 NMatS0=      1 NMatT0=    0 NMatD0=    1 NMtDS0=    0 NMtDT0=    0
 Petite list used in FoFCou.
 Leave Link  703 at Wed Jul 30 07:40:16 2025, MaxMem= 12348030976 cpu:               3.0 elap:               0.1
 (Enter /home/hhratchian/gaussian/gdv-20250101-j30+/gdv/l716.exe)
 Dipole        =-1.85378608D-17 0.00000000D+00-9.71978252D-01
 ***** Axes restored to original set *****
 -------------------------------------------------------------------
 Center     Atomic                   Forces (Hartrees/Bohr)
 Number     Number              X              Y              Z
 -------------------------------------------------------------------
      1        6          -0.000000000   -0.000000000    0.000020169
      2        8          -0.000000000    0.000000000   -0.000083454
      3        1           0.000000000    0.000018076    0.000031643
      4        1           0.000000000   -0.000018076    0.000031643
 -------------------------------------------------------------------
 Cartesian Forces:  Max     0.000083454 RMS     0.000028907
 Leave Link  716 at Wed Jul 30 07:40:16 2025, MaxMem= 12348030976 cpu:               0.1 elap:               0.0
[...]
 Low frequencies ---   -9.4659    0.0005    0.0006    0.0008   11.6358   12.5954
 Low frequencies --- 1203.2662 1273.8129 1560.3177
 Diagonal vibrational polarizability:
        0.1230331       0.5877856       0.8488637
 Harmonic frequencies (cm**-1), IR intensities (KM/Mole), Raman scattering
 activities (A**4/AMU), depolarization ratios for plane and unpolarized
 incident light, reduced masses (AMU), force constants (mDyne/A),
 and normal coordinates:
                      1                      2                      3
                     B1                     B2                     A1
 Frequencies --   1203.2662              1273.8129              1560.3177
 Red. masses --      1.3614                 1.3344                 1.2896
 Frc consts  --      1.1614                 1.2757                 1.8498
 IR Inten    --      6.6193                 9.3786                17.4688
  Atom  AN      X      Y      Z        X      Y      Z        X      Y      Z
     1   6    -0.17   0.00  -0.00    -0.00  -0.15  -0.00    -0.00  -0.00   0.06
     2   8     0.04  -0.00  -0.00     0.00   0.08   0.00     0.00   0.00  -0.13
     3   1     0.70  -0.00  -0.00     0.00   0.26   0.65     0.00   0.32   0.62
     4   1     0.70   0.00   0.00     0.00   0.26  -0.65     0.00  -0.32   0.62
                      4                      5                      6
                     A1                     A1                     B2
 Frequencies --   1748.2036              2963.2855              3034.4665
 Red. masses --      3.7504                 1.0472                 1.1180
 Frc consts  --      6.7532                 5.4177                 6.0655
 IR Inten    --     60.9111                38.9671               147.8959
  Atom  AN      X      Y      Z        X      Y      Z        X      Y      Z
     1   6     0.00  -0.00   0.40    -0.00   0.00   0.06     0.00  -0.10   0.00
     2   8    -0.00   0.00  -0.25     0.00   0.00  -0.00    -0.00   0.00  -0.00
     3   1    -0.00  -0.47  -0.41     0.00   0.61  -0.35    -0.00   0.60  -0.37
     4   1    -0.00   0.47  -0.41     0.00  -0.61  -0.35    -0.00   0.60   0.37

 -------------------
 - Thermochemistry -
 -------------------
 Temperature 298.150 Kelvin.  Pressure 1.00000 Atm.
 Atom     1 has atomic number  6 and mass  12.00000
 Atom     2 has atomic number  8 and mass  15.99491
 Atom     3 has atomic number  1 and mass   1.00783
 Atom     4 has atomic number  1 and mass   1.00783
 Molecular mass:    30.01056 amu.
 Principal axes and moments of inertia in atomic units:
                                 1                 2                 3
     Eigenvalues --            6.271163         48.323755         54.594918
           X                   0.000000         -0.000000          1.000000
           Y                   0.000000          1.000000          0.000000
           Z                   1.000000         -0.000000         -0.000000
 This molecule is an asymmetric top.
 Rotational symmetry number  2.
 Rotational temperatures (Kelvin)     13.81146     1.79237     1.58648
 Rotational constants (GHZ):         287.78414    37.34687    33.05695
 Zero-point vibrational energy      70480.1 (Joules/Mol)
                                   16.84515 (Kcal/Mol)
 Vibrational temperatures:   1731.23  1832.73  2244.95  2515.28  4263.51
          (Kelvin)           4365.92
 
 Zero-point correction=                           0.026844 (Hartree/Particle)
 Thermal correction to Energy=                    0.029712
 Thermal correction to Enthalpy=                  0.030656
 Thermal correction to Gibbs Free Energy=         0.005810
 Sum of electronic and zero-point Energies=           -114.434293
 Sum of electronic and thermal Energies=              -114.431426
 Sum of electronic and thermal Enthalpies=            -114.430481
 Sum of electronic and thermal Free Energies=         -114.455327
 
                     E (Thermal)             CV                S
                      KCal/Mol        Cal/Mol-Kelvin    Cal/Mol-Kelvin
 Total                   18.644              6.417             52.292
 Electronic               0.000              0.000              0.000
 Translational            0.889              2.981             36.130
 Rotational               0.889              2.981             16.077
 Vibrational             16.867              0.456              0.084
                       Q            Log10(Q)             Ln(Q)
 Total Bot       0.212568D-02         -2.672502         -6.153664
 Total V=0       0.473236D+10          9.675078         22.277690
 Vib (Bot)       0.451842D-12        -12.345013        -28.425444
 Vib (V=0)       0.100593D+01          0.002566          0.005909
 Electronic      0.100000D+01          0.000000          0.000000
 Translational   0.646197D+07          6.810365         15.681445
 Rotational      0.728025D+03          2.862146          6.590335
 
                                                             CH2O neutral
                                                             IR Spectrum
 
     3  2                                                  1       1           1  1                                                  
     0  9                                                  7       5           2  2                                                  
     3  6                                                  4       6           7  0                                                  
     4  3                                                  8       0           4  3                                                  
 
     X  X                                                  X       X           X  X                                                  
     X  X                                                  X       X                                                                 
     X  X                                                  X                                                                         
     X  X                                                  X                                                                         
     X  X                                                  X                                                                         
     X                                                     X                                                                         
     X                                                     X                                                                         
     X                                                     X                                                                         
     X                                                                                                                               
     X                                                                                                                               
     X                                                                                                                               
     X                                                                                                                               
     X                                                                                                                               
     X                                                                                                                               
     X                                                                                                                               
     X                                                                                                                               
     X                                                                                                                               
     X                                                                                                                               
     X                                                                                                                               
     X                                                                                                                               
 
 ***** Axes restored to original set *****
 -------------------------------------------------------------------
 Center     Atomic                   Forces (Hartrees/Bohr)
 Number     Number              X              Y              Z
 -------------------------------------------------------------------
      1        6          -0.000000000    0.000000000    0.000020165
      2        8          -0.000000000    0.000000000   -0.000083453
      3        1           0.000000000    0.000018076    0.000031644
      4        1           0.000000000   -0.000018076    0.000031644
 -------------------------------------------------------------------
 Cartesian Forces:  Max     0.000083453 RMS     0.000028907
 Force constants in Cartesian coordinates: 
                1             2             3             4             5 
      1  0.172610D+00
      2  0.000000D+00  0.592694D+00
      3  0.000000D+00  0.000000D+00  0.928992D+00
      4 -0.557131D-01  0.000000D+00  0.000000D+00  0.180071D-01
      5  0.000000D+00 -0.100587D+00  0.000000D+00  0.000000D+00  0.705606D-01
      6  0.000000D+00  0.000000D+00 -0.712463D+00  0.000000D+00  0.000000D+00
      7 -0.584482D-01  0.000000D+00  0.000000D+00  0.188530D-01  0.000000D+00
      8  0.000000D+00 -0.246054D+00  0.869133D-01  0.000000D+00  0.150130D-01
      9  0.000000D+00  0.883688D-01 -0.108264D+00  0.000000D+00  0.370841D-01
     10 -0.584482D-01  0.000000D+00  0.000000D+00  0.188530D-01  0.000000D+00
     11  0.000000D+00 -0.246054D+00 -0.869133D-01  0.000000D+00  0.150130D-01
     12  0.000000D+00 -0.883688D-01 -0.108264D+00  0.000000D+00 -0.370841D-01
                6             7             8             9            10 
      6  0.790004D+00
      7  0.000000D+00  0.197959D-01
      8  0.113292D-01  0.000000D+00  0.250265D+00
      9 -0.387703D-01  0.000000D+00 -0.111848D+00  0.137425D+00
     10  0.000000D+00  0.197993D-01  0.000000D+00  0.000000D+00  0.197959D-01
     11 -0.113292D-01  0.000000D+00 -0.192246D-01 -0.136053D-01  0.000000D+00
     12 -0.387703D-01  0.000000D+00  0.136053D-01  0.960966D-02  0.000000D+00
               11            12 
     11  0.250265D+00
     12  0.111848D+00  0.137425D+00
 FormGI is forming the generalized inverse of G from B-inverse, IUseBI=4.
 NTrRot=    -1 NTRed=     7 NAtoms=     4 NSkip=     1 NRank=     6 IsLin=F EigSml=7.4253D-01
 Force constants in internal coordinates: 
                1             2             3             4             5 
      1  0.790004D+00
      2  0.302294D-01  0.319095D+00
      3  0.302294D-01  0.423773D-02  0.319095D+00
      4  0.186064D-01  0.380448D-02 -0.125587D-01  0.117980D+00
      5  0.186064D-01 -0.125587D-01  0.380448D-02 -0.730251D-01  0.117980D+00
      6 -0.372129D-01  0.875418D-02  0.875418D-02 -0.449553D-01 -0.449553D-01
      7  0.000000D+00  0.000000D+00  0.000000D+00  0.000000D+00  0.000000D+00
                6             7 
      6  0.899106D-01
      7  0.000000D+00  0.615645D-01
 Leave Link  716 at Wed Jul 30 07:40:24 2025, MaxMem= 12348030976 cpu:               0.8 elap:               0.1
 (Enter /home/hhratchian/gaussian/gdv-20250101-j30+/gdv/l103.exe)

 GradGradGradGradGradGradGradGradGradGradGradGradGradGradGradGradGradGrad
 Berny optimization.
 Internal  Forces:  Max     0.000083453 RMS     0.000039291
 Search for a local minimum.
 Step number   1 out of a maximum of    2
 All quantities printed in internal units (Hartrees-Bohrs-Radians)
 Second derivative matrix not updated -- analytic derivatives used.
 The second derivative matrix:
                          R1        R2        R3        A1        A2
           R1           0.79000
           R2           0.03023   0.31909
           R3           0.03023   0.00424   0.31909
           A1           0.01861   0.00380  -0.01256   0.11798
           A2           0.01861  -0.01256   0.00380  -0.07303   0.11798
           A3          -0.03721   0.00875   0.00875  -0.04496  -0.04496
           D1           0.00000   0.00000   0.00000  -0.00000  -0.00000
                          A3        D1
           A3           0.08991
           D1           0.00000   0.06156
 ITU=  0
     Eigenvalues ---    0.06156   0.13000   0.18888   0.31698   0.32139
     Eigenvalues ---    0.79682
 Angle between quadratic step and forces=  43.01 degrees.
 Linear search not attempted -- first point.
 GrdOpt: GIC=T ITstSp=  0 NP=   1 DidLin=F DidDIS=F IDoGRo=0 IDoRot=0
         ISwap=1 XLin= 0.000 DXMaxT= 0.300
 Iteration  1 RMS(Cart)=  0.00012962 RMS(Int)=  0.00000002
 Iteration  2 RMS(Cart)=  0.00000001 RMS(Int)=  0.00000000
 ClnCor:  largest displacement from symmetrization is 4.67D-15 for atom     1.
 Variable       Old X    -DE/DX   Delta X   Delta X   Delta X     New X
                                 (Linear)    (Quad)   (Total)
    R1        2.32741  -0.00008   0.00000  -0.00008  -0.00008   2.32733
    R2        2.08364  -0.00000   0.00000  -0.00001  -0.00001   2.08363
    R3        2.08364  -0.00000   0.00000  -0.00001  -0.00001   2.08363
    A1        2.13216  -0.00003   0.00000  -0.00018  -0.00018   2.13198
    A2        2.13216  -0.00003   0.00000  -0.00018  -0.00018   2.13198
    A3        2.01887   0.00005   0.00000   0.00035   0.00035   2.01923
    D1        3.14159   0.00000   0.00000   0.00000   0.00000   3.14159
         Item               Value     Threshold  Converged?
 Maximum Force            0.000083     0.000450     YES
 RMS     Force            0.000039     0.000300     YES
 Maximum Displacement     0.000219     0.001800     YES
 RMS     Displacement     0.000170     0.001200     YES
 Predicted change in Energy=-1.679247D-08
 Optimization completed.
    -- Stationary point found.
                           ----------------------------
                           !   Optimized Parameters   !
                           ! (Angstroms and Degrees)  !
 --------------------------                            --------------------------
 ! Name  Definition              Value          Derivative Info.                !
 --------------------------------------------------------------------------------
 ! R1    R(1,2)                  1.2316         -DE/DX =   -0.0001              !
 ! R2    R(1,3)                  1.1026         -DE/DX =    0.0                 !
 ! R3    R(1,4)                  1.1026         -DE/DX =    0.0                 !
 ! A1    A(2,1,3)              122.1636         -DE/DX =    0.0                 !
 ! A2    A(2,1,4)              122.1636         -DE/DX =    0.0                 !
 ! A3    A(3,1,4)              115.6728         -DE/DX =    0.0001              !
 ! D1    D(3,1,2,4)            180.0            -DE/DX =    0.0                 !
 --------------------------------------------------------------------------------
 GradGradGradGradGradGradGradGradGradGradGradGradGradGradGradGradGradGrad

 Leave Link  103 at Wed Jul 30 07:40:24 2025, MaxMem= 12348030976 cpu:               0.9 elap:               0.1
 (Enter /home/hhratchian/gaussian/gdv-20250101-j30+/gdv/local/l9999.exe)

 ----------------------------------------------------------------------

 Electric dipole moment (input orientation):
 (Debye = 10**-18 statcoulomb cm , SI units = C m)
                  (au)            (Debye)         (10**-30 SI)
   Tot        0.971978D+00      0.247052D+01      0.824078D+01
   x          0.000000D+00      0.000000D+00      0.000000D+00
   y          0.000000D+00      0.000000D+00      0.000000D+00
   z         -0.971978D+00     -0.247052D+01     -0.824078D+01

 Dipole polarizability, Alpha (input orientation).
 (esu units = cm**3 , SI units = C**2 m**2 J**-1)
 Alpha(0;0):
               (au)            (10**-24 esu)      (10**-40 SI)
   iso        0.125356D+02      0.185758D+01      0.206684D+01
   aniso      0.113235D+02      0.167797D+01      0.186700D+01
   xx         0.586859D+01      0.869635D+00      0.967600D+00
   yx         0.000000D+00      0.000000D+00      0.000000D+00
   yy         0.128025D+02      0.189713D+01      0.211084D+01
   zx         0.000000D+00      0.000000D+00      0.000000D+00
   zy         0.000000D+00      0.000000D+00      0.000000D+00
   zz         0.189357D+02      0.280598D+01      0.312208D+01

 ----------------------------------------------------------------------

 Dipole orientation:
     6          0.00000000         -0.00000000          0.01118759
     8          0.00000000         -0.00000000         -2.31621875
     1          0.00000000         -1.76386958          1.12039024
     1         -0.00000000          1.76386958          1.12039024

 Electric dipole moment (dipole orientation):
 (Debye = 10**-18 statcoulomb cm , SI units = C m)
                  (au)            (Debye)         (10**-30 SI)
   Tot        0.971978D+00      0.247052D+01      0.824078D+01
   x          0.000000D+00      0.000000D+00      0.000000D+00
   y          0.000000D+00      0.000000D+00      0.000000D+00
   z          0.971978D+00      0.247052D+01      0.824078D+01

 Dipole polarizability, Alpha (dipole orientation).
 (esu units = cm**3 , SI units = C**2 m**2 J**-1)
 Alpha(0;0):
               (au)            (10**-24 esu)      (10**-40 SI)
   iso        0.125356D+02      0.185758D+01      0.206684D+01
   aniso      0.113235D+02      0.167797D+01      0.186700D+01
   xx         0.586859D+01      0.869635D+00      0.967600D+00
   yx         0.000000D+00      0.000000D+00      0.000000D+00
   yy         0.128025D+02      0.189713D+01      0.211084D+01
   zx         0.000000D+00      0.000000D+00      0.000000D+00
   zy         0.000000D+00      0.000000D+00      0.000000D+00
   zz         0.189357D+02      0.280598D+01      0.312208D+01

 ----------------------------------------------------------------------
 Unable to Open any file for archive entry.
 1\1\GINC-GNODE001\Freq\RB3LYP\6-31G\C1H2O1\AABOUTAKA\30-Jul-2025\0\\#P
  Geom=AllCheck Guess=TCheck SCRF=Check GenChk RB3LYP/6-31G Freq\\CH2O 
 neutral\\0,1\C,0.,0.,-0.0059202179\O,0.,0.,1.2256901804\H,0.,0.9333995
 833,-0.5928849813\H,0.,-0.9333995833,-0.5928849813\\Version=ES64L-GDVR
 evJ.30+\State=1-A1\HF=-114.4611371\RMSD=6.853e-10\RMSF=2.891e-05\ZeroP
 oint=0.0268445\Thermal=0.0297116\ETot=-114.4314255\HTot=-114.4304814\G
 Tot=-114.4553269\Dipole=0.,0.,-0.9719783\DipoleDeriv=0.1351578,0.,0.,0
 .,0.8412415,0.,0.,0.,0.8554016,-0.3264523,0.,0.,0.,-0.4360977,0.,0.,0.
 ,-0.7581766,0.0956472,0.,0.,0.,-0.2025719,0.0972459,0.,0.1151946,-0.04
 86125,0.0956472,0.,0.,0.,-0.2025719,-0.0972459,0.,-0.1151946,-0.048612
 5\Polar=5.8685912,0.,12.8024552,0.,0.,18.9357111\Quadrupole=0.2140955,
 0.1856803,-0.3997758,0.,0.,0.\PG=C02V [C2(C1O1),SGV(H2)]\NImag=0\\0.17
 260961,0.,0.59269436,0.,0.,0.92899220,-0.05571312,0.,0.,0.01800707,0.,
 -0.10058671,0.,0.,0.07056064,0.,0.,-0.71246331,0.,0.,0.79000384,-0.058
 44824,0.,0.,0.01885303,0.,0.,0.01979590,0.,-0.24605382,0.08691328,0.,0
 .01501304,0.01132917,0.,0.25026538,0.,0.08836884,-0.10826444,0.,0.0370
 8414,-0.03877027,0.,-0.11184772,0.13742505,-0.05844824,0.,0.,0.0188530
 3,0.,0.,0.01979932,0.,0.,0.01979590,0.,-0.24605382,-0.08691328,0.,0.01
 501304,-0.01132917,0.,-0.01922459,-0.01360526,0.,0.25026538,0.,-0.0883
 6884,-0.10826444,0.,-0.03708414,-0.03877027,0.,0.01360526,0.00960966,0
 .,0.11184772,0.13742505\\0.,0.,-0.00002016,0.,0.,0.00008345,0.,-0.0000
 1808,-0.00003164,0.,0.00001808,-0.00003164\\\@
 The archive entry for this job was punched.


 ONLY A FOOL KNOWS EVERYTHING.

               -- THE CHEMIST ANALYST, SEPTEMBER 1946
 Job cpu time:       0 days  0 hours  3 minutes 13.0 seconds.
 Elapsed time:       0 days  0 hours  0 minutes  4.7 seconds.
 File lengths (MBytes):  RWF=     38 Int=      0 D2E=      0 Chk=     18 Scr=      2
 Normal termination of Gaussian DV at Wed Jul 30 07:40:24 2025.
