 Entering Gaussian System, Link 0=g16
 AtFile(1): SDDPlusTZ.gbs
            ! SDDPlusTZ Basis Set + ECP
            !
            !
            ! Last updated/modified by: H. P. Hratchian, January 13, 2025.
            !
            !
            ! This file contains parameters for the SDD+TZ basis set and ECP, given in the
            ! Gaussian input format. This set is often used in the Hratchian Group's metal
            ! oxide cluster work. References to this basis and ECP are:
            !      (1) Waller, S. E.; Mann, J. E.; Rothgeb, D. W.; Jarrold, C. C. J. Phys.
            !          Chem. A 2012, 116 (39), 9639–9652.
            !      (2) Mayhall, N. J.; Rothgeb, D. W.; Hossain, E.; Raghavachari, K.;
            !          Jarrold, C. C. J. Chem. Phys. 2009, 130, 124313− 124323.
            !      (3) Andrae, D.; Haussermann, U.; Dolg, M.; Stoll, H.; Preuss, H. Theor.
            !          Chim. Acta 1990, 77, 123−141.
            !
            -Sc 0
            SDD
            S 1 1.00
             0.003 1.0
            P 1 1.00
             0.0071415 1.0
            D 1 1.00
             0.012 1.0
             F   1 1.00
                  0.180    1.0
             F   1 1.00
                  0.764    1.0
             G   1 1.00
                  0.347    1.0
            ****
            -Ti 0
            SDD
            S 1 1.00
             0.003 1.0
            P 1 1.00
             0.0071352 1.0
            D 1 1.00
             0.015 1.0
             F   1 1.00
                  0.285    1.0
             F   1 1.00
                  1.264    1.0
             G   1 1.00
                  0.636    1.0
            ****
            -V 0
            SDD
            S 1 1.00
             0.003 1.0
            P 1 1.00
             0.0079179 1.0
            D 1 1.00
             0.018 1.0
             F   1 1.00
                  0.425    1.0
             F   1 1.00
                  1.788    1.0
             G   1 1.00
                  1.048    1.0
            ****
            -Cr 0
            SDD
            S 1 1.00
             0.003 1.0
            P 1 1.00
             0.0079935 1.0
            D 1 1.00
             0.021 1.0
             F   1 1.00
                  0.640    1.0
             F   1 1.00
                  2.555    1.0
             G   1 1.00
                  1.712    1.0
            ****
            -Mn 0
            SDD
            S 1 1.00
             0.003 1.0
            P 1 1.00
             0.0084888 1.0
            D 1 1.00
             0.021 1.0
             F   1 1.00
                  0.795    1.0
             F   1 1.00
                  3.118    1.0
             G   1 1.00
                  1.964    1.0
            ****
            -Fe 0
            SDD
            S 1 1.00
             0.003 1.0
            P 1 1.00
             0.0088332 1.0
            D 1 1.00
             0.024 1.0
             F   1 1.00
                  0.871    1.0
             F   1 1.00
                  3.516    1.0
             G   1 1.00
                  2.269    1.0
            ****
            -Co 0
            SDD
            S 1 1.00
             0.003 1.0
            P 1 1.00
             0.0091782 1.0
            D 1 1.00
             0.027 1.0
             F   1 1.00
                  1.019    1.0
             F   1 1.00
                  4.076    1.0
             G   1 1.00
                  2.711    1.0
            ****
            -Ni 0
            SDD
            S 1 1.00
             0.003 1.0
            P 1 1.00
             0.0095352 1.0
            D 1 1.00
             0.027 1.0
             F   1 1.00
                  1.182    1.0
             F   1 1.00
                  4.685    1.0
             G   1 1.00
                  3.212    1.0
            ****
            -Cu 0
            SDD
            S 1 1.00
             0.003 1.0
            P 1 1.00
             0.0092634 1.0
            D 1 1.00
             0.030 1.0
             F   1 1.00
                  1.315    1.0
             F   1 1.00
                  5.208    1.0
             G   1 1.00
                  3.665    1.0
            ****
            -Zn 0
            SDD
            S 1 1.00
             0.003 1.0
            P 1 1.00
             0.0149958 1.0
            D 1 1.00
             0.033 1.0
             F   1 1.00
                  1.498    1.0
             F   1 1.00
                  5.871    1.0
             G   1 1.00
                  4.365    1.0
            ****
            -Y 0
            SDD
            S 1 1.00
             0.003 1.0
            P 1 1.00
             0.0066708 1.0
            D 1 1.00
             0.006 1.0
             F   1 1.00
                  0.144    1.0
             F   1 1.00
                  0.546    1.0
             G   1 1.00
                  0.249    1.0
            ****
            -Zr 0
            SDD
            S 1 1.00
             0.0033 1.0
            P 1 1.00
             0.0067569 1.0
            D 1 1.00
             0.009 1.0
             F   1 1.00
                  0.236    1.0
             F   1 1.00
                  0.883    1.0
             G   1 1.00
                  0.547    1.0
            ****
            -Nb 0
            SDD
            S 1 1.00
             0.0045 1.0
            P 1 1.00
             0.0701512 1.0
            D 1 1.00
             0.011 1.0
             F    1 1.00
                   0.261   1.0
             F    1 1.00
                   0.970   1.0
             G    1 1.00
                   0.536   1.0
            ****
            -Mo 0
            SDD
            S 1 1.00
             0.0045 1.0
            P 1 1.00
             0.0070821 1.0
            D 1 1.00
             0.0129 1.0
             F   1 1.00
                  0.338    1.0
             F   1 1.00
                  1.223    1.0
             G   1 1.00
                  0.744    1.0
            ****
            -Ru 0
            SDD
            S 1 1.00
             0.0048 1.0
            P 1 1.00
             0.0068781 1.0
            D 1 1.00
             0.0153 1.0
             F   1 1.00
                  0.478    1.0
             F   1 1.00
                  1.666    1.0
             G   1 1.00
                  1.057    1.0
            ****
            -Rh 0
            SDD
            S 1 1.00
             0.0048 1.0
            P 1 1.00
             0.007251 1.0
            D 1 1.00
             0.0165 1.0
             F   1 1.00
                  0.567    1.0
             F   1 1.00
                  1.989    1.0
             G   1 1.00
                  1.236    1.0
            ****
            -Pd 0
            SDD
            S 1 1.00
             0.0048 1.0
            P 1 1.00
             0.0074262 1.0
            D 1 1.00
             0.018 1.0
             F   1 1.00
                  0.621    1.0
             F   1 1.00
                  2.203    1.0
             G   1 1.00
                  1.385    1.0
            ****
            -Ag 0
            SDD
            S 1 1.00
             0.0048 1.0
            P 1 1.00
             0.0071169 1.0
            D 1 1.00
             0.0198 1.0
             F   1 1.00
                  0.732    1.0
             F   1 1.00
                  2.537    1.0
             G   1 1.00
                  1.587    1.0
            ****
            -Cd 0
            SDD
            S 1 1.00
             0.0057 1.0
            P 1 1.00
             0.0109932 1.0
            D 1 1.00
             0.0225 1.0
             F   1 1.00
                  0.834    1.0
             F   1 1.00
                  2.853    1.0
             G   1 1.00
                  1.795    1.0
            ****
            -W 0
             SDD
            S 1 1.00
             0.0045 1.0
            P 1 1.00
             0.0081084 1.0
            D 1 1.00
             0.012 1.0
             F   1 1.00
                  0.256    1.0
             F   1 1.00
                  0.825    1.0
             G   1 1.00
                  0.627    1.0
            ****
            -Os 0
            SDD
            S 1 1.00
             0.0045 1.0
            P 1 1.00
             0.0079971 1.0
            D 1 1.00
             0.015 1.0
             F   1 1.00
                  0.347    1.0
             F   1 1.00
                  1.067    1.0
             G   1 1.00
                  0.860    1.0
            ****
            -Ir 0
            SDD
            S 1 1.00
             0.0045 1.0
            P 1 1.00
             0.0082092 1.0
            D 1 1.00
             0.015 1.0
             F   1 1.00
                  0.395    1.0
             F   1 1.00
                  1.189    1.0
             G   1 1.00
                  0.982    1.0
            ****
            -Pt 0
            SDD
            S 1 1.00
             0.0045 1.0
            P 1 1.00
             0.0083406 1.0
            D 1 1.00
             0.015 1.0
             F   1 1.00
                  0.443    1.0
             F   1 1.00
                  1.323    1.0
             G   1 1.00
                  1.100    1.0
            ****
            -Au 0
            SDD
            S 1 1.00
             0.0019245 1.0
            P 1 1.00
             0.0102 1.0
            D 1 1.00
             0.0136536 1.0
             F   1 1.00
                  1.461    1.0
             F   1 1.00
                  0.498    1.0
             G   1 1.00
                  1.218    1.0
            ****
            !
            ! Gd ... HPH Added S, P, D, and F diffuse functions using 0.3 exponent ratio.
            -Gd 0
            SDD
            S 1 1.00
             0.0071100 1.0
            P 1 1.00
             0.0240000 1.0
            D 1 1.00
             0.0311100 1.0
            F 1 1.00
             0.0856500 1.0
            ****
            -O 0
            aug-cc-pVTz
            ****
            !
            ! Tb ... HPH Added S, P, D, and F diffuse functions using 0.3 exponent ratio.
            -Tb 0
            SDD
            S 1 1.00
             0.0069300 1.0
            P 1 1.00
             0.0240000 1.0
            D 1 1.00
             0.0317400 1.0
            F 1 1.00
             0.0859800 1.0
            ****
            -O 0
            aug-cc-pVTz
            ****
            
            -Gd  0
            SDD
 Initial command:
 /N/soft/rhel8/gaussian/g16/l1.exe "/N/scratch/calhuiz/Gau-427563.inp" -scrdir="/N/scratch/calhuiz/"
 Entering Link 1 = /N/soft/rhel8/gaussian/g16/l1.exe PID=    427564.
  
 Copyright (c) 1988,1990,1992,1993,1995,1998,2003,2009,2016,
            Gaussian, Inc.  All Rights Reserved.
  
 This is part of the Gaussian(R) 16 program.  It is based on
 the Gaussian(R) 09 system (copyright 2009, Gaussian, Inc.),
 the Gaussian(R) 03 system (copyright 2003, Gaussian, Inc.),
 the Gaussian(R) 98 system (copyright 1998, Gaussian, Inc.),
 the Gaussian(R) 94 system (copyright 1995, Gaussian, Inc.),
 the Gaussian 92(TM) system (copyright 1992, Gaussian, Inc.),
 the Gaussian 90(TM) system (copyright 1990, Gaussian, Inc.),
 the Gaussian 88(TM) system (copyright 1988, Gaussian, Inc.),
 the Gaussian 86(TM) system (copyright 1986, Carnegie Mellon
 University), and the Gaussian 82(TM) system (copyright 1983,
 Carnegie Mellon University). Gaussian is a federally registered
 trademark of Gaussian, Inc.
  
 This software contains proprietary and confidential information,
 including trade secrets, belonging to Gaussian, Inc.
  
 This software is provided under written license and may be
 used, copied, transmitted, or stored only in accord with that
 written license.
  
 The following legend is applicable only to US Government
 contracts under FAR:
  
                    RESTRICTED RIGHTS LEGEND
  
 Use, reproduction and disclosure by the US Government is
 subject to restrictions as set forth in subparagraphs (a)
 and (c) of the Commercial Computer Software - Restricted
 Rights clause in FAR 52.227-19.
  
 Gaussian, Inc.
 340 Quinnipiac St., Bldg. 40, Wallingford CT 06492
  
  
 ---------------------------------------------------------------
 Warning -- This program may not be used in any manner that
 competes with the business of Gaussian, Inc. or will provide
 assistance to any competitor of Gaussian, Inc.  The licensee
 of this program is prohibited from giving any competitor of
 Gaussian, Inc. access to this program.  By using this program,
 the user acknowledges that Gaussian, Inc. is engaged in the
 business of creating and licensing software in the field of
 computational chemistry and represents and warrants to the
 licensee that it is not a competitor of Gaussian, Inc. and that
 it will not use this program in any manner prohibited above.
 ---------------------------------------------------------------
  

 Cite this work as:
 Gaussian 16, Revision A.03,
 M. J. Frisch, G. W. Trucks, H. B. Schlegel, G. E. Scuseria, 
 M. A. Robb, J. R. Cheeseman, G. Scalmani, V. Barone, 
 G. A. Petersson, H. Nakatsuji, X. Li, M. Caricato, A. V. Marenich, 
 J. Bloino, B. G. Janesko, R. Gomperts, B. Mennucci, H. P. Hratchian, 
 J. V. Ortiz, A. F. Izmaylov, J. L. Sonnenberg, D. Williams-Young, 
 F. Ding, F. Lipparini, F. Egidi, J. Goings, B. Peng, A. Petrone, 
 T. Henderson, D. Ranasinghe, V. G. Zakrzewski, J. Gao, N. Rega, 
 G. Zheng, W. Liang, M. Hada, M. Ehara, K. Toyota, R. Fukuda, 
 J. Hasegawa, M. Ishida, T. Nakajima, Y. Honda, O. Kitao, H. Nakai, 
 T. Vreven, K. Throssell, J. A. Montgomery, Jr., J. E. Peralta, 
 F. Ogliaro, M. J. Bearpark, J. J. Heyd, E. N. Brothers, K. N. Kudin, 
 V. N. Staroverov, T. A. Keith, R. Kobayashi, J. Normand, 
 K. Raghavachari, A. P. Rendell, J. C. Burant, S. S. Iyengar, 
 J. Tomasi, M. Cossi, J. M. Millam, M. Klene, C. Adamo, R. Cammi, 
 J. W. Ochterski, R. L. Martin, K. Morokuma, O. Farkas, 
 J. B. Foresman, and D. J. Fox, Gaussian, Inc., Wallingford CT, 2016.
 
 ******************************************
 Gaussian 16:  AS64L-G16RevA.03 25-Dec-2016
                14-Aug-2025 
 ******************************************
 %chk=guess1.chk
 %mem=50GB
 %nprocshared=88
 Will use up to   88 processors via shared memory.
 ---------------------------------------------------------------------
 #p opt=calcfc freq ub3lyp/genecp int=ultrafine scf=(tight,xqc,intrep)
 ---------------------------------------------------------------------
 1/10=4,18=20,19=15,26=4,38=1/1,3;
 2/9=110,12=2,17=6,18=5,40=1/2;
 3/5=7,11=2,16=1,17=8,25=1,30=1,71=2,74=-5,75=-5,116=2,140=1/1,2,3;
 4//1;
 5/5=2,8=3,13=1,17=20,32=2,38=5/2,8;
 8/6=4,10=90,11=11/1;
 11/6=1,8=1,9=11,15=111,16=1/1,2,10;
 10/6=1,13=1/2;
 6/7=2,8=2,9=2,10=2,28=1/1;
 7/10=1,18=20,25=1/1,2,3,16;
 1/10=4,18=20,19=15,26=4/3(2);
 2/9=110/2;
 99//99;
 2/9=110/2;
 3/5=7,6=1,11=2,16=1,17=8,25=1,30=1,71=1,74=-5,75=-5,82=7,116=2/1,2,3;
 4/5=5,16=3,69=1/1;
 5/5=2,8=3,13=1,17=20,32=2,38=5/2,8;
 7//1,2,3,16;
 1/18=20,19=15,26=4/3(-5);
 2/9=110/2;
 6/7=2,8=2,9=2,10=2,19=2,28=1/1;
 99/9=1/99;
 Leave Link    1 at Thu Aug 14 14:36:40 2025, MaxMem=  6710886400 cpu:               2.2 elap:               0.1
 (Enter /N/soft/rhel8/gaussian/g16/l101.exe)
 -------------
 Gd3O3_ring_24
 -------------
 Symbolic Z-matrix:
 Charge = -1 Multiplicity =24
 Gd                   -1.51321  -1.58693   0.00001 
 Gd                   -0.703     2.18359  -0.00019 
 Gd                    2.16612  -0.44078   0.00011 
 O                     0.66641  -2.07052  -0.00008 
 O                     1.48362   1.63479  -0.00004 
 O                    -2.14869   0.42919  -0.00008 
 
 ITRead=  0  0  0  0  0  0
 MicOpt= -1 -1 -1 -1 -1 -1
 NAtoms=      6 NQM=        6 NQMF=       0 NMMI=      0 NMMIF=      0
                NMic=       0 NMicF=      0.
                    Isotopes and Nuclear Properties:
 (Nuclear quadrupole moments (NQMom) in fm**2, nuclear magnetic moments (NMagM)
  in nuclear magnetons)

  Atom         1           2           3           4           5           6
 IAtWgt=         158         158         158          16          16          16
 AtmWgt= 157.9241000 157.9241000 157.9241000  15.9949146  15.9949146  15.9949146
 NucSpn=           0           0           0           0           0           0
 AtZEff=  -0.0000000  -0.0000000  -0.0000000  -0.0000000  -0.0000000  -0.0000000
 NQMom=    0.0000000   0.0000000   0.0000000   0.0000000   0.0000000   0.0000000
 NMagM=    0.0000000   0.0000000   0.0000000   0.0000000   0.0000000   0.0000000
 AtZNuc=  64.0000000  64.0000000  64.0000000   8.0000000   8.0000000   8.0000000
 Leave Link  101 at Thu Aug 14 14:36:40 2025, MaxMem=  6710886400 cpu:               1.2 elap:               0.2
 (Enter /N/soft/rhel8/gaussian/g16/l103.exe)

 GradGradGradGradGradGradGradGradGradGradGradGradGradGradGradGradGradGrad
 Berny optimization.
 Initialization pass.
                           ----------------------------
                           !    Initial Parameters    !
                           ! (Angstroms and Degrees)  !
 --------------------------                            --------------------------
 ! Name  Definition              Value          Derivative Info.                !
 --------------------------------------------------------------------------------
 ! R1    R(1,2)                  3.8566         calculate D2E/DX2 analytically  !
 ! R2    R(1,3)                  3.8537         calculate D2E/DX2 analytically  !
 ! R3    R(1,4)                  2.2326         calculate D2E/DX2 analytically  !
 ! R4    R(1,6)                  2.1139         calculate D2E/DX2 analytically  !
 ! R5    R(2,5)                  2.2544         calculate D2E/DX2 analytically  !
 ! R6    R(2,6)                  2.2733         calculate D2E/DX2 analytically  !
 ! R7    R(3,4)                  2.2148         calculate D2E/DX2 analytically  !
 ! R8    R(3,5)                  2.1849         calculate D2E/DX2 analytically  !
 ! A1    A(2,1,3)               60.5703         calculate D2E/DX2 analytically  !
 ! A2    A(2,1,4)               90.3821         calculate D2E/DX2 analytically  !
 ! A3    A(3,1,6)               90.1925         calculate D2E/DX2 analytically  !
 ! A4    A(4,1,6)              120.0044         calculate D2E/DX2 analytically  !
 ! A5    A(1,2,5)               88.038          calculate D2E/DX2 analytically  !
 ! A6    A(5,2,6)              115.4005         calculate D2E/DX2 analytically  !
 ! A7    A(1,3,5)               89.1001         calculate D2E/DX2 analytically  !
 ! A8    A(4,3,5)              119.1769         calculate D2E/DX2 analytically  !
 ! A9    A(2,5,3)              122.2916         calculate D2E/DX2 analytically  !
 ! D1    D(3,1,2,5)             -0.0003         calculate D2E/DX2 analytically  !
 ! D2    D(4,1,2,5)             -0.006          calculate D2E/DX2 analytically  !
 ! D3    D(2,1,3,5)              0.0003         calculate D2E/DX2 analytically  !
 ! D4    D(6,1,3,5)             -0.0017         calculate D2E/DX2 analytically  !
 ! D5    D(1,2,5,3)              0.0006         calculate D2E/DX2 analytically  !
 ! D6    D(6,2,5,3)              0.0028         calculate D2E/DX2 analytically  !
 ! D7    D(1,3,5,2)             -0.0006         calculate D2E/DX2 analytically  !
 ! D8    D(4,3,5,2)              0.0057         calculate D2E/DX2 analytically  !
 --------------------------------------------------------------------------------
 Trust Radius=3.00D-01 FncErr=1.00D-07 GrdErr=1.00D-06 EigMax=2.50D+02 EigMin=1.00D-04
 Number of steps in this run=     35 maximum allowed number of steps=    100.
 GradGradGradGradGradGradGradGradGradGradGradGradGradGradGradGradGradGrad

 Leave Link  103 at Thu Aug 14 14:36:40 2025, MaxMem=  6710886400 cpu:               1.1 elap:               0.0
 (Enter /N/soft/rhel8/gaussian/g16/l202.exe)
                          Input orientation:                          
 ---------------------------------------------------------------------
 Center     Atomic      Atomic             Coordinates (Angstroms)
 Number     Number       Type             X           Y           Z
 ---------------------------------------------------------------------
      1         64           0       -1.513208   -1.586933    0.000008
      2         64           0       -0.702999    2.183593   -0.000195
      3         64           0        2.166124   -0.440778    0.000109
      4          8           0        0.666411   -2.070518   -0.000077
      5          8           0        1.483618    1.634788   -0.000043
      6          8           0       -2.148691    0.429186   -0.000076
 ---------------------------------------------------------------------
                    Distance matrix (angstroms):
                    1          2          3          4          5
     1  Gd   0.000000
     2  Gd   3.856592   0.000000
     3  Gd   3.853719   3.888340   0.000000
     4  O    2.232620   4.469087   2.214767   0.000000
     5  O    4.400051   2.254436   2.184900   3.794354   0.000000
     6  O    2.113900   2.273317   4.401644   3.764747   3.827159
                    6
     6  O    0.000000
 Stoichiometry    Gd3O3(1-,24)
 Framework group  C1[X(Gd3O3)]
 Deg. of freedom    12
 Full point group                 C1      NOp   1
 Largest Abelian subgroup         C1      NOp   1
 Largest concise Abelian subgroup C1      NOp   1
                         Standard orientation:                         
 ---------------------------------------------------------------------
 Center     Atomic      Atomic             Coordinates (Angstroms)
 Number     Number       Type             X           Y           Z
 ---------------------------------------------------------------------
      1         64           0       -0.033939    2.215941   -0.000038
      2         64           0       -1.935151   -1.139457    0.000164
      3         64           0        1.952824   -1.086169   -0.000139
      4          8           0        1.915832    1.128289    0.000047
      5          8           0        0.063203   -2.183038    0.000013
      6          8           0       -1.848913    1.132224    0.000046
 ---------------------------------------------------------------------
 Rotational constants (GHZ):           0.3936236           0.3865891           0.1950373
 Leave Link  202 at Thu Aug 14 14:36:40 2025, MaxMem=  6710886400 cpu:               1.0 elap:               0.0
 (Enter /N/soft/rhel8/gaussian/g16/l301.exe)
 General basis read from cards:  (5D, 7F)
 Centers:       1      2      3
 SDD
 S 1 1.00
     Exponent=  7.1100000000D-03 Coefficients=  1.0000000000D+00
 P 1 1.00
     Exponent=  2.4000000000D-02 Coefficients=  1.0000000000D+00
 D 1 1.00
     Exponent=  3.1110000000D-02 Coefficients=  1.0000000000D+00
 F 1 1.00
     Exponent=  8.5650000000D-02 Coefficients=  1.0000000000D+00
 ****
 Centers:       4      5      6
 aug-cc-pVTz
 ****
 Centers:       4      5      6
 aug-cc-pVTz
 ****
 ======================================================================================================
                                       Pseudopotential Parameters
 ======================================================================================================
  Center     Atomic      Valence      Angular      Power
  Number     Number     Electrons     Momentum     of R      Exponent        Coefficient   SO-Coeffient
 ======================================================================================================
    1         64           36
                                      H and up 
                                                     2        1.0000000        0.00000000    0.00000000
                                      S - H
                                                     2       24.6021510      637.20086900    0.00000000
                                      P - H
                                                     2       16.8892500      261.68960100    0.00000000
                                      D - H
                                                     2       13.6433580      106.85653300    0.00000000
                                      F - H
                                                     2       24.1269170      -50.68359000    0.00000000
                                      G - H
                                                     2       22.1318870      -27.57963000    0.00000000
    2         64           36
                                      H and up 
                                                     2        1.0000000        0.00000000    0.00000000
                                      S - H
                                                     2       24.6021510      637.20086900    0.00000000
                                      P - H
                                                     2       16.8892500      261.68960100    0.00000000
                                      D - H
                                                     2       13.6433580      106.85653300    0.00000000
                                      F - H
                                                     2       24.1269170      -50.68359000    0.00000000
                                      G - H
                                                     2       22.1318870      -27.57963000    0.00000000
    3         64           36
                                      H and up 
                                                     2        1.0000000        0.00000000    0.00000000
                                      S - H
                                                     2       24.6021510      637.20086900    0.00000000
                                      P - H
                                                     2       16.8892500      261.68960100    0.00000000
                                      D - H
                                                     2       13.6433580      106.85653300    0.00000000
                                      F - H
                                                     2       24.1269170      -50.68359000    0.00000000
                                      G - H
                                                     2       22.1318870      -27.57963000    0.00000000
    4          8
                                   No pseudopotential on this center.
    5          8
                                   No pseudopotential on this center.
    6          8
                                   No pseudopotential on this center.
 ======================================================================================================
 Ernie: Thresh=  0.10000D-02 Tol=  0.10000D-05 Strict=F.
 Ernie:  66 primitive shells out of 345 were deleted.
 There are   822 symmetry adapted cartesian basis functions of A   symmetry.
 There are   651 symmetry adapted basis functions of A   symmetry.
   651 basis functions,  1275 primitive gaussians,   822 cartesian basis functions
    78 alpha electrons       55 beta electrons
       nuclear repulsion energy      1075.8647493488 Hartrees.
 IExCor=  402 DFT=T Ex+Corr=B3LYP ExCW=0 ScaHFX=  0.200000
 ScaDFX=  0.800000  0.720000  1.000000  0.810000 ScalE2=  1.000000  1.000000
 IRadAn=      5 IRanWt=     -1 IRanGd=            0 ICorTp=0 IEmpDi=  4
 NAtoms=    6 NActive=    6 NUniq=    6 SFac= 1.00D+00 NAtFMM=   60 NAOKFM=F Big=F
 Integral buffers will be    131072 words long.
 Raffenetti 2 integral format.
 Two-electron integral symmetry is turned on.
 Leave Link  301 at Thu Aug 14 14:36:40 2025, MaxMem=  6710886400 cpu:               0.8 elap:               0.1
 (Enter /N/soft/rhel8/gaussian/g16/l302.exe)
 NPDir=0 NMtPBC=     1 NCelOv=     1 NCel=       1 NClECP=     1 NCelD=      1
         NCelK=      1 NCelE2=     1 NClLst=     1 CellRange=     0.0.
 One-electron integrals computed using PRISM.
 One-electron integral symmetry used in STVInt
   1 Symmetry operations used in ECPInt.
 ECPInt:  NShTT=   15753 NPrTT=   39345 LenC2=   14755 LenP2D=   29601.
 LDataN:  DoStor=T MaxTD1= 9 Len=  602
 NBasis=   651 RedAO= T EigKep=  1.64D-04  NBF=   651
 NBsUse=   528 1.00D-06 EigRej=  8.81D-16 NBFU=   528
 Precomputing XC quadrature grid using
 IXCGrd= 4 IRadAn=           5 IRanWt=          -1 IRanGd=           0 AccXCQ= 0.00D+00.
 Defaulting to unpruned grid for atomic number  64.
 Defaulting to unpruned grid for atomic number  64.
 Defaulting to unpruned grid for atomic number  64.
 Generated NRdTot=       0 NPtTot=           0 NUsed=           0 NTot=          32
 NSgBfM=   791   791   791   791   791 MxSgAt=     6 MxSgA2=     6.
 Leave Link  302 at Thu Aug 14 14:36:42 2025, MaxMem=  6710886400 cpu:             129.0 elap:               2.1
 (Enter /N/soft/rhel8/gaussian/g16/l303.exe)
 DipDrv:  MaxL=1.
 Leave Link  303 at Thu Aug 14 14:36:42 2025, MaxMem=  6710886400 cpu:               9.3 elap:               0.2
 (Enter /N/soft/rhel8/gaussian/g16/l401.exe)
 ExpMin= 7.11D-03 ExpMax= 7.07D+04 ExpMxC= 1.06D+04 IAcc=3 IRadAn=         5 AccDes= 0.00D+00
 Harris functional with IExCor=  402 and IRadAn=       5 diagonalized for initial guess.
 HarFok:  IExCor=  402 AccDes= 0.00D+00 IRadAn=         5 IDoV= 1 UseB2=F ITyADJ=14
 ICtDFT=  3500011 ScaDFX=  1.000000  1.000000  1.000000  1.000000
 Defaulting to unpruned grid for atomic number  64.
 FoFCou: FMM=F IPFlag=           0 FMFlag=      100000 FMFlg1=           0
         NFxFlg=           0 DoJE=T BraDBF=F KetDBF=T FulRan=T
         wScrn=  0.000000 ICntrl=       500 IOpCl=  0 I1Cent=   200000004 NGrid=           0
         NMat0=    1 NMatS0=      1 NMatT0=    0 NMatD0=    1 NMtDS0=    0 NMtDT0=    0
 Petite list used in FoFCou.
 Harris En= -2527.32892907545    
 JPrj=0 DoOrth=F DoCkMO=F.
 Initial guess <Sx>= 0.0000 <Sy>= 0.0000 <Sz>=11.5000 <S**2>=******* S=11.5000
 Leave Link  401 at Thu Aug 14 14:36:44 2025, MaxMem=  6710886400 cpu:              85.6 elap:               1.5
 (Enter /N/soft/rhel8/gaussian/g16/l502.exe)
 Two-electron integrals replicated using symmetry.
 UHF open shell SCF:
 Using DIIS extrapolation, IDIIS=  1040.
 NGot=  6710886400 LenX=  6709456578 LenY=  6708780072
 Requested convergence on RMS density matrix=1.00D-08 within  32 cycles.
 Requested convergence on MAX density matrix=1.00D-06.
 Requested convergence on             energy=1.00D-06.
 No special actions if energy rises.
 Fock matrices will be formed incrementally for  20 cycles.

 Cycle   1  Pass 1  IDiag  1:
 FoFJK:  IHMeth= 1 ICntrl=       0 DoSepK=F KAlg= 0 I1Cent=           0 FoldK=F
 IRaf= 910000000 NMat=       1 IRICut=       1 DoRegI=T DoRafI=F ISym2E= 0 IDoP0=0 IntGTp=1.
 FoFCou: FMM=F IPFlag=           0 FMFlag=      100000 FMFlg1=           0
         NFxFlg=           0 DoJE=F BraDBF=F KetDBF=F FulRan=T
         wScrn=  0.000000 ICntrl=         0 IOpCl=  1 I1Cent=           0 NGrid=           0
         NMat0=    1 NMatS0=      1 NMatT0=    0 NMatD0=    1 NMtDS0=    0 NMtDT0=    0
 Symmetry not used in FoFCou.
 Defaulting to unpruned grid for atomic number  64.
 Defaulting to unpruned grid for atomic number  64.
 Defaulting to unpruned grid for atomic number  64.
 Defaulting to unpruned grid for atomic number  64.
 Defaulting to unpruned grid for atomic number  64.
 Defaulting to unpruned grid for atomic number  64.
 Defaulting to unpruned grid for atomic number  64.
 Defaulting to unpruned grid for atomic number  64.
 Defaulting to unpruned grid for atomic number  64.
 Defaulting to unpruned grid for atomic number  64.
 Defaulting to unpruned grid for atomic number  64.
 Defaulting to unpruned grid for atomic number  64.
 Defaulting to unpruned grid for atomic number  64.
 Defaulting to unpruned grid for atomic number  64.
 Defaulting to unpruned grid for atomic number  64.
 Defaulting to unpruned grid for atomic number  64.
 Defaulting to unpruned grid for atomic number  64.
 Defaulting to unpruned grid for atomic number  64.
 Defaulting to unpruned grid for atomic number  64.
 Defaulting to unpruned grid for atomic number  64.
 Defaulting to unpruned grid for atomic number  64.
 Defaulting to unpruned grid for atomic number  64.
 Defaulting to unpruned grid for atomic number  64.
 Defaulting to unpruned grid for atomic number  64.
 Defaulting to unpruned grid for atomic number  64.
 Defaulting to unpruned grid for atomic number  64.
 Defaulting to unpruned grid for atomic number  64.
 Defaulting to unpruned grid for atomic number  64.
 Defaulting to unpruned grid for atomic number  64.
 Defaulting to unpruned grid for atomic number  64.
 Defaulting to unpruned grid for atomic number  64.
 Defaulting to unpruned grid for atomic number  64.
 Defaulting to unpruned grid for atomic number  64.
 Defaulting to unpruned grid for atomic number  64.
 Defaulting to unpruned grid for atomic number  64.
 Defaulting to unpruned grid for atomic number  64.
 Defaulting to unpruned grid for atomic number  64.
 Defaulting to unpruned grid for atomic number  64.
 Defaulting to unpruned grid for atomic number  64.
 Defaulting to unpruned grid for atomic number  64.
 Defaulting to unpruned grid for atomic number  64.
 Defaulting to unpruned grid for atomic number  64.
 Defaulting to unpruned grid for atomic number  64.
 Defaulting to unpruned grid for atomic number  64.
 Defaulting to unpruned grid for atomic number  64.
 Defaulting to unpruned grid for atomic number  64.
 Defaulting to unpruned grid for atomic number  64.
 Defaulting to unpruned grid for atomic number  64.
 Defaulting to unpruned grid for atomic number  64.
 Defaulting to unpruned grid for atomic number  64.
 Defaulting to unpruned grid for atomic number  64.
 Defaulting to unpruned grid for atomic number  64.
 Defaulting to unpruned grid for atomic number  64.
 Defaulting to unpruned grid for atomic number  64.
 Defaulting to unpruned grid for atomic number  64.
 Defaulting to unpruned grid for atomic number  64.
 Defaulting to unpruned grid for atomic number  64.
 Defaulting to unpruned grid for atomic number  64.
 Defaulting to unpruned grid for atomic number  64.
 Defaulting to unpruned grid for atomic number  64.
 Defaulting to unpruned grid for atomic number  64.
 Defaulting to unpruned grid for atomic number  64.
 Defaulting to unpruned grid for atomic number  64.
 Defaulting to unpruned grid for atomic number  64.
 Defaulting to unpruned grid for atomic number  64.
 Defaulting to unpruned grid for atomic number  64.
 Defaulting to unpruned grid for atomic number  64.
 Defaulting to unpruned grid for atomic number  64.
 Defaulting to unpruned grid for atomic number  64.
 Defaulting to unpruned grid for atomic number  64.
 Defaulting to unpruned grid for atomic number  64.
 Defaulting to unpruned grid for atomic number  64.
 Defaulting to unpruned grid for atomic number  64.
 Defaulting to unpruned grid for atomic number  64.
 Defaulting to unpruned grid for atomic number  64.
 Defaulting to unpruned grid for atomic number  64.
 Defaulting to unpruned grid for atomic number  64.
 Defaulting to unpruned grid for atomic number  64.
 Defaulting to unpruned grid for atomic number  64.
 Defaulting to unpruned grid for atomic number  64.
 Defaulting to unpruned grid for atomic number  64.
 Defaulting to unpruned grid for atomic number  64.
 Defaulting to unpruned grid for atomic number  64.
 Defaulting to unpruned grid for atomic number  64.
 Defaulting to unpruned grid for atomic number  64.
 Defaulting to unpruned grid for atomic number  64.
 Defaulting to unpruned grid for atomic number  64.
 Defaulting to unpruned grid for atomic number  64.
 E= -2513.46747749984    
 DIIS: error= 2.02D-01 at cycle   1 NSaved=   1.
 NSaved= 1 IEnMin= 1 EnMin= -2513.46747749984     IErMin= 1 ErrMin= 2.02D-01
 ErrMax= 2.02D-01  0.00D+00 EMaxC= 1.00D-01 BMatC= 1.38D+02 BMatP= 1.38D+02
 IDIUse=3 WtCom= 0.00D+00 WtEn= 1.00D+00
 Coeff-Com:  0.100D+01
 Coeff-En:   0.100D+01
 Coeff:      0.100D+01
 Gap=     0.234 Goal=   None    Shift=    0.000
 Gap=     0.022 Goal=   None    Shift=    0.000
 GapD=    0.022 DampG=0.250 DampE=0.125 DampFc=0.1250 IDamp=-1.
 Damping current iteration by 1.25D-01
 RMSDP=2.72D+00 MaxDP=7.86D+02              OVMax= 9.97D-01

 Cycle   2  Pass 1  IDiag  1:
 RMSU=  3.40D-01    CP:  1.57D+00
 E= -2517.77155189683     Delta-E=       -4.304074396991 Rises=F Damp=T
 DIIS: error= 9.60D-02 at cycle   2 NSaved=   2.
 NSaved= 2 IEnMin= 2 EnMin= -2517.77155189683     IErMin= 2 ErrMin= 9.60D-02
 ErrMax= 9.60D-02  0.00D+00 EMaxC= 1.00D-01 BMatC= 2.88D+01 BMatP= 1.38D+02
 IDIUse=3 WtCom= 4.01D-02 WtEn= 9.60D-01
 Coeff-Com: -0.748D+00 0.175D+01
 Coeff-En:   0.000D+00 0.100D+01
 Coeff:     -0.300D-01 0.103D+01
 Gap=     0.017 Goal=   None    Shift=    0.000
 Gap=    -0.037 Goal=   None    Shift=    0.000
 RMSDP=3.40D-01 MaxDP=9.81D+01 DE=-4.30D+00 OVMax= 9.99D-01

 Cycle   3  Pass 1  IDiag  1:
 RMSU=  8.33D-03    CP:  8.63D-01  1.67D-03
 E= -2460.31297649116     Delta-E=       57.458575405667 Rises=F Damp=F
 DIIS: error= 3.33D-01 at cycle   3 NSaved=   3.
 NSaved= 3 IEnMin= 2 EnMin= -2517.77155189683     IErMin= 2 ErrMin= 9.60D-02
 ErrMax= 3.33D-01  0.00D+00 EMaxC= 1.00D-01 BMatC= 4.03D+02 BMatP= 2.88D+01
 IDIUse=2 WtCom= 0.00D+00 WtEn= 1.00D+00
 EnCoef did   100 forward-backward iterations
 Coeff-En:   0.737D+00 0.252D-01 0.238D+00
 Coeff:      0.737D+00 0.252D-01 0.238D+00
 Gap=     0.008 Goal=   None    Shift=    0.000
 Gap=     0.180 Goal=   None    Shift=    0.000
 RMSDP=9.55D-03 MaxDP=2.71D+00 DE= 5.75D+01 OVMax= 9.99D-01

 Cycle   4  Pass 1  IDiag  1:
 RMSU=  6.39D-03    CP:  8.84D-01  3.28D-03  1.50D-01
 E= -2483.10382557606     Delta-E=      -22.790849084895 Rises=F Damp=F
 DIIS: error= 2.35D-01 at cycle   4 NSaved=   4.
 NSaved= 4 IEnMin= 2 EnMin= -2517.77155189683     IErMin= 2 ErrMin= 9.60D-02
 ErrMax= 2.35D-01  0.00D+00 EMaxC= 1.00D-01 BMatC= 2.06D+02 BMatP= 2.88D+01
 IDIUse=2 WtCom= 0.00D+00 WtEn= 1.00D+00
 EnCoef did   100 forward-backward iterations
 Coeff-En:   0.659D+00 0.151D-01 0.207D+00 0.120D+00
 Coeff:      0.659D+00 0.151D-01 0.207D+00 0.120D+00
 Gap=     0.027 Goal=   None    Shift=    0.000
 Gap=     0.090 Goal=   None    Shift=    0.000
 RMSDP=6.27D-03 MaxDP=1.12D+00 DE=-2.28D+01 OVMax= 1.00D+00

 Cycle   5  Pass 1  IDiag  1:
 RMSU=  2.86D-03    CP:  9.31D-01 -7.86D-04  2.62D-01  1.77D-01
 E= -2522.32659250599     Delta-E=      -39.222766929933 Rises=F Damp=F
 DIIS: error= 7.43D-02 at cycle   5 NSaved=   5.
 NSaved= 5 IEnMin= 5 EnMin= -2522.32659250599     IErMin= 5 ErrMin= 7.43D-02
 ErrMax= 7.43D-02  0.00D+00 EMaxC= 1.00D-01 BMatC= 1.16D+01 BMatP= 2.88D+01
 IDIUse=3 WtCom= 2.57D-01 WtEn= 7.43D-01
 Coeff-Com: -0.214D+00 0.710D+00-0.271D-01-0.987D-02 0.541D+00
 Coeff-En:   0.142D+00 0.000D+00 0.000D+00 0.000D+00 0.858D+00
 Coeff:      0.501D-01 0.183D+00-0.697D-02-0.254D-02 0.777D+00
 Gap=     0.450 Goal=   None    Shift=    0.000
 Gap=     0.022 Goal=   None    Shift=    0.000
 RMSDP=6.57D-03 MaxDP=7.02D-01 DE=-3.92D+01 OVMax= 8.74D-01

 Cycle   6  Pass 1  IDiag  1:
 RMSU=  6.33D-03    CP:  9.33D-01  4.31D-03  2.38D-01  1.77D-01  1.02D+00
 E= -2510.17138882627     Delta-E=       12.155203679723 Rises=F Damp=F
 DIIS: error= 3.27D-01 at cycle   6 NSaved=   6.
 NSaved= 6 IEnMin= 5 EnMin= -2522.32659250599     IErMin= 5 ErrMin= 7.43D-02
 ErrMax= 3.27D-01  0.00D+00 EMaxC= 1.00D-01 BMatC= 2.69D+02 BMatP= 1.16D+01
 IDIUse=2 WtCom= 0.00D+00 WtEn= 1.00D+00
 Coeff-En:   0.000D+00 0.000D+00 0.000D+00 0.000D+00 0.824D+00 0.176D+00
 Coeff:      0.000D+00 0.000D+00 0.000D+00 0.000D+00 0.824D+00 0.176D+00
 Gap=     0.186 Goal=   None    Shift=    0.000
 Gap=     0.089 Goal=   None    Shift=    0.000
 RMSDP=5.86D-03 MaxDP=6.60D-01 DE= 1.22D+01 OVMax= 9.99D-01

 Cycle   7  Pass 1  IDiag  1:
 RMSU=  4.17D-03    CP:  9.57D-01  3.15D-03  2.45D-01  1.06D-01  9.94D-01
                    CP:  3.60D-01
 E= -2498.21879713805     Delta-E=       11.952591688219 Rises=F Damp=F
 DIIS: error= 3.00D-01 at cycle   7 NSaved=   7.
 NSaved= 7 IEnMin= 5 EnMin= -2522.32659250599     IErMin= 5 ErrMin= 7.43D-02
 ErrMax= 3.00D-01  0.00D+00 EMaxC= 1.00D-01 BMatC= 2.83D+02 BMatP= 1.16D+01
 IDIUse=2 WtCom= 0.00D+00 WtEn= 1.00D+00
 EnCoef did     3 forward-backward iterations
 Coeff-En:   0.000D+00 0.000D+00 0.000D+00 0.000D+00 0.809D+00 0.161D+00
 Coeff-En:   0.298D-01
 Coeff:      0.000D+00 0.000D+00 0.000D+00 0.000D+00 0.809D+00 0.161D+00
 Coeff:      0.298D-01
 Gap=     0.077 Goal=   None    Shift=    0.000
 Gap=     0.025 Goal=   None    Shift=    0.000
 RMSDP=2.83D-03 MaxDP=4.16D-01 DE= 1.20D+01 OVMax= 9.95D-01

 Cycle   8  Pass 1  IDiag  1:
 RMSU=  1.77D-03    CP:  9.55D-01  2.24D-03  3.03D-01  1.50D-01  1.19D+00
                    CP:  2.73D-01  5.28D-01
 E= -2522.55706709373     Delta-E=      -24.338269955681 Rises=F Damp=F
 DIIS: error= 6.66D-02 at cycle   8 NSaved=   8.
 NSaved= 8 IEnMin= 8 EnMin= -2522.55706709373     IErMin= 8 ErrMin= 6.66D-02
 ErrMax= 6.66D-02  0.00D+00 EMaxC= 1.00D-01 BMatC= 8.62D+00 BMatP= 1.16D+01
 IDIUse=3 WtCom= 3.34D-01 WtEn= 6.66D-01
 EnCoef did     3 forward-backward iterations
 Coeff-Com: -0.190D+00 0.514D+00-0.194D-01 0.948D-02 0.402D+00 0.365D-01
 Coeff-Com: -0.635D-03 0.247D+00
 Coeff-En:   0.000D+00 0.000D+00 0.000D+00 0.000D+00 0.524D+00 0.109D+00
 Coeff-En:   0.000D+00 0.367D+00
 Coeff:     -0.635D-01 0.172D+00-0.648D-02 0.317D-02 0.483D+00 0.849D-01
 Coeff:     -0.212D-03 0.327D+00
 Gap=     0.128 Goal=   None    Shift=    0.000
 Gap=     0.036 Goal=   None    Shift=    0.000
 RMSDP=3.92D-03 MaxDP=5.42D-01 DE=-2.43D+01 OVMax= 5.41D-01

 Cycle   9  Pass 1  IDiag  1:
 RMSU=  2.66D-03    CP:  9.49D-01  2.05D-03  2.49D-01  3.00D-01  1.20D+00
                    CP:  3.05D-01  1.72D-01 -2.46D-01
 E= -2523.19509213944     Delta-E=       -0.638025045713 Rises=F Damp=F
 DIIS: error= 3.24D-02 at cycle   9 NSaved=   9.
 NSaved= 9 IEnMin= 9 EnMin= -2523.19509213944     IErMin= 9 ErrMin= 3.24D-02
 ErrMax= 3.24D-02  0.00D+00 EMaxC= 1.00D-01 BMatC= 4.07D+00 BMatP= 8.62D+00
 IDIUse=3 WtCom= 6.76D-01 WtEn= 3.24D-01
 EnCoef did     1 forward-backward iterations
 Coeff-Com: -0.690D-01 0.210D+00-0.533D-02 0.241D-02 0.193D+00 0.177D-01
 Coeff-Com: -0.265D-01 0.302D+00 0.376D+00
 Coeff-En:   0.000D+00 0.000D+00 0.000D+00 0.000D+00 0.000D+00 0.330D-02
 Coeff-En:   0.000D+00 0.304D+00 0.693D+00
 Coeff:     -0.466D-01 0.142D+00-0.360D-02 0.163D-02 0.130D+00 0.131D-01
 Coeff:     -0.179D-01 0.303D+00 0.479D+00
 Gap=     0.130 Goal=   None    Shift=    0.000
 Gap=     0.036 Goal=   None    Shift=    0.000
 RMSDP=4.97D-03 MaxDP=8.30D-01 DE=-6.38D-01 OVMax= 7.74D-01

 Cycle  10  Pass 1  IDiag  1:
 RMSU=  2.88D-03    CP:  9.33D-01  4.02D-03  2.84D-01  2.40D-01  1.25D+00
                    CP:  6.57D-01  3.55D-01  3.94D-01 -1.15D-01
 E= -2520.60551250352     Delta-E=        2.589579635923 Rises=F Damp=F
 DIIS: error= 2.06D-01 at cycle  10 NSaved=  10.
 NSaved=10 IEnMin= 9 EnMin= -2523.19509213944     IErMin= 9 ErrMin= 3.24D-02
 ErrMax= 2.06D-01  0.00D+00 EMaxC= 1.00D-01 BMatC= 5.58D+01 BMatP= 4.07D+00
 IDIUse=2 WtCom= 0.00D+00 WtEn= 1.00D+00
 EnCoef did     3 forward-backward iterations
 Coeff-En:   0.000D+00 0.000D+00 0.000D+00 0.000D+00 0.000D+00 0.000D+00
 Coeff-En:   0.000D+00 0.205D+00 0.626D+00 0.169D+00
 Coeff:      0.000D+00 0.000D+00 0.000D+00 0.000D+00 0.000D+00 0.000D+00
 Coeff:      0.000D+00 0.205D+00 0.626D+00 0.169D+00
 Gap=     0.069 Goal=   None    Shift=    0.000
 Gap=     0.020 Goal=   None    Shift=    0.000
 RMSDP=4.97D-03 MaxDP=5.87D-01 DE= 2.59D+00 OVMax= 8.24D-01

 Cycle  11  Pass 1  IDiag  1:
 RMSU=  1.29D-03    CP:  9.40D-01  5.36D-04  2.61D-01  2.06D-01  1.03D+00
                    CP:  1.34D-01  1.99D-01  4.80D-01  2.37D-01 -3.45D-02
 E= -2522.95259137956     Delta-E=       -2.347078876037 Rises=F Damp=F
 DIIS: error= 5.36D-02 at cycle  11 NSaved=  11.
 NSaved=11 IEnMin= 9 EnMin= -2523.19509213944     IErMin= 9 ErrMin= 3.24D-02
 ErrMax= 5.36D-02  0.00D+00 EMaxC= 1.00D-01 BMatC= 7.88D+00 BMatP= 4.07D+00
 IDIUse=2 WtCom= 0.00D+00 WtEn= 1.00D+00
 EnCoef did     8 forward-backward iterations
 Coeff-En:   0.000D+00 0.000D+00 0.000D+00 0.000D+00 0.000D+00 0.000D+00
 Coeff-En:   0.000D+00 0.472D-01 0.471D+00 0.193D+00 0.289D+00
 Coeff:      0.000D+00 0.000D+00 0.000D+00 0.000D+00 0.000D+00 0.000D+00
 Coeff:      0.000D+00 0.472D-01 0.471D+00 0.193D+00 0.289D+00
 Gap=     0.096 Goal=   None    Shift=    0.000
 Gap=     0.030 Goal=   None    Shift=    0.000
 RMSDP=4.27D-03 MaxDP=4.84D-01 DE=-2.35D+00 OVMax= 6.56D-01

 Cycle  12  Pass 1  IDiag  1:
 RMSU=  2.40D-03    CP:  9.39D-01  3.78D-03  2.89D-01  2.05D-01  1.22D+00
                    CP:  5.82D-01  4.01D-01  4.89D-01  4.34D-01 -2.97D-01
                    CP:  1.23D-01
 E= -2521.82149483467     Delta-E=        1.131096544885 Rises=F Damp=F
 DIIS: error= 1.74D-01 at cycle  12 NSaved=  12.
 NSaved=12 IEnMin= 9 EnMin= -2523.19509213944     IErMin= 9 ErrMin= 3.24D-02
 ErrMax= 1.74D-01  0.00D+00 EMaxC= 1.00D-01 BMatC= 3.13D+01 BMatP= 4.07D+00
 IDIUse=2 WtCom= 0.00D+00 WtEn= 1.00D+00
 EnCoef did     7 forward-backward iterations
 Coeff-En:   0.000D+00 0.000D+00 0.000D+00 0.000D+00 0.000D+00 0.000D+00
 Coeff-En:   0.000D+00 0.000D+00 0.310D+00 0.192D+00 0.355D+00 0.143D+00
 Coeff:      0.000D+00 0.000D+00 0.000D+00 0.000D+00 0.000D+00 0.000D+00
 Coeff:      0.000D+00 0.000D+00 0.310D+00 0.192D+00 0.355D+00 0.143D+00
 Gap=     0.095 Goal=   None    Shift=    0.000
 Gap=     0.033 Goal=   None    Shift=    0.000
 RMSDP=4.06D-03 MaxDP=5.19D-01 DE= 1.13D+00 OVMax= 5.56D-01

 Cycle  13  Pass 1  IDiag  1:
 RMSU=  5.61D-04    CP:  9.52D-01  1.08D-03  2.66D-01  2.34D-01  1.10D+00
                    CP:  1.74D-01  2.64D-01  3.41D-01  5.07D-01  3.74D-02
                    CP:  5.08D-01 -8.70D-02
 E= -2523.29694047064     Delta-E=       -1.475445635972 Rises=F Damp=F
 DIIS: error= 3.07D-02 at cycle  13 NSaved=  13.
 NSaved=13 IEnMin=13 EnMin= -2523.29694047064     IErMin=13 ErrMin= 3.07D-02
 ErrMax= 3.07D-02  0.00D+00 EMaxC= 1.00D-01 BMatC= 2.57D+00 BMatP= 4.07D+00
 IDIUse=3 WtCom= 6.93D-01 WtEn= 3.07D-01
 EnCoef did     2 forward-backward iterations
 Coeff-Com: -0.949D-02 0.679D-01-0.340D-02-0.390D-02 0.276D-01-0.847D-02
 Coeff-Com: -0.136D-01 0.145D+00 0.318D+00 0.833D-01 0.762D-01 0.340D-01
 Coeff-Com:  0.287D+00
 Coeff-En:   0.000D+00 0.000D+00 0.000D+00 0.000D+00 0.000D+00 0.000D+00
 Coeff-En:   0.000D+00 0.000D+00 0.000D+00 0.182D+00 0.000D+00 0.177D+00
 Coeff-En:   0.641D+00
 Coeff:     -0.658D-02 0.471D-01-0.236D-02-0.270D-02 0.192D-01-0.587D-02
 Coeff:     -0.943D-02 0.101D+00 0.220D+00 0.114D+00 0.528D-01 0.779D-01
 Coeff:      0.395D+00
 Gap=     0.093 Goal=   None    Shift=    0.000
 Gap=     0.037 Goal=   None    Shift=    0.000
 RMSDP=3.33D-03 MaxDP=3.79D-01 DE=-1.48D+00 OVMax= 3.58D-01

 Cycle  14  Pass 1  IDiag  1:
 RMSU=  1.05D-03    CP:  9.38D-01  4.21D-03  2.96D-01  3.19D-01  1.36D+00
                    CP:  5.42D-01  3.12D-01  1.55D-01  7.90D-01  1.04D-01
                    CP:  1.64D-01  3.26D-01 -3.21D-01
 E= -2523.50035522760     Delta-E=       -0.203414756957 Rises=F Damp=F
 DIIS: error= 5.25D-02 at cycle  14 NSaved=  14.
 NSaved=14 IEnMin=14 EnMin= -2523.50035522760     IErMin=13 ErrMin= 3.07D-02
 ErrMax= 5.25D-02  0.00D+00 EMaxC= 1.00D-01 BMatC= 3.42D+00 BMatP= 2.57D+00
 IDIUse=2 WtCom= 0.00D+00 WtEn= 1.00D+00
 EnCoef did   100 forward-backward iterations
 Coeff-En:   0.000D+00 0.000D+00 0.000D+00 0.000D+00 0.000D+00 0.000D+00
 Coeff-En:   0.000D+00 0.000D+00 0.000D+00 0.104D+00 0.324D-02 0.000D+00
 Coeff-En:   0.393D+00 0.501D+00
 Coeff:      0.000D+00 0.000D+00 0.000D+00 0.000D+00 0.000D+00 0.000D+00
 Coeff:      0.000D+00 0.000D+00 0.000D+00 0.104D+00 0.324D-02 0.000D+00
 Coeff:      0.393D+00 0.501D+00
 Gap=     0.089 Goal=   None    Shift=    0.000
 Gap=     0.031 Goal=   None    Shift=    0.000
 RMSDP=3.14D-03 MaxDP=4.61D-01 DE=-2.03D-01 OVMax= 4.32D-01

 Cycle  15  Pass 1  IDiag  1:
 RMSU=  3.93D-04    CP:  9.45D-01  1.48D-03  2.90D-01  2.35D-01  1.15D+00
                    CP:  2.02D-01  2.59D-01  4.99D-01  3.86D-01  7.09D-02
                    CP:  6.30D-01 -1.08D-01  5.39D-01  5.07D-01
 E= -2523.29103014804     Delta-E=        0.209325079564 Rises=F Damp=F
 DIIS: error= 3.37D-02 at cycle  15 NSaved=  15.
 NSaved=15 IEnMin=14 EnMin= -2523.50035522760     IErMin=13 ErrMin= 3.07D-02
 ErrMax= 3.37D-02  0.00D+00 EMaxC= 1.00D-01 BMatC= 3.91D+00 BMatP= 2.57D+00
 IDIUse=2 WtCom= 0.00D+00 WtEn= 1.00D+00
 EnCoef did   100 forward-backward iterations
 Coeff-En:   0.000D+00 0.000D+00 0.000D+00 0.000D+00 0.000D+00 0.000D+00
 Coeff-En:   0.000D+00 0.000D+00 0.000D+00 0.893D-01 0.000D+00 0.000D+00
 Coeff-En:   0.756D-02 0.521D+00 0.382D+00
 Coeff:      0.000D+00 0.000D+00 0.000D+00 0.000D+00 0.000D+00 0.000D+00
 Coeff:      0.000D+00 0.000D+00 0.000D+00 0.893D-01 0.000D+00 0.000D+00
 Coeff:      0.756D-02 0.521D+00 0.382D+00
 Gap=     0.082 Goal=   None    Shift=    0.000
 Gap=     0.031 Goal=   None    Shift=    0.000
 RMSDP=1.22D-03 MaxDP=2.39D-01 DE= 2.09D-01 OVMax= 2.01D-01

 Cycle  16  Pass 1  IDiag  1:
 RMSU=  3.92D-04    CP:  9.46D-01  2.13D-03  2.77D-01  2.97D-01  1.17D+00
                    CP:  2.70D-01  2.00D-01  3.18D-01  5.65D-01  2.07D-01
                    CP:  5.22D-01 -2.42D-01  6.10D-01  9.57D-01  1.43D+00
 E= -2523.45097315343     Delta-E=       -0.159943005391 Rises=F Damp=F
 DIIS: error= 2.78D-02 at cycle  16 NSaved=  16.
 NSaved=16 IEnMin=14 EnMin= -2523.50035522760     IErMin=16 ErrMin= 2.78D-02
 ErrMax= 2.78D-02  0.00D+00 EMaxC= 1.00D-01 BMatC= 2.30D+00 BMatP= 2.57D+00
 IDIUse=3 WtCom= 7.22D-01 WtEn= 2.78D-01
 EnCoef did     2 forward-backward iterations
 Coeff-Com: -0.190D-02 0.102D-01 0.161D-02-0.417D-02 0.520D-01-0.716D-02
 Coeff-Com:  0.590D-03 0.949D-01-0.135D+00 0.213D-01 0.220D+00-0.736D-01
 Coeff-Com:  0.551D+00 0.554D+00-0.919D+00 0.635D+00
 Coeff-En:   0.000D+00 0.000D+00 0.000D+00 0.000D+00 0.000D+00 0.000D+00
 Coeff-En:   0.000D+00 0.000D+00 0.000D+00 0.585D-01 0.000D+00 0.000D+00
 Coeff-En:   0.000D+00 0.486D+00 0.000D+00 0.455D+00
 Coeff:     -0.138D-02 0.733D-02 0.116D-02-0.301D-02 0.376D-01-0.517D-02
 Coeff:      0.426D-03 0.685D-01-0.974D-01 0.317D-01 0.159D+00-0.531D-01
 Coeff:      0.398D+00 0.535D+00-0.664D+00 0.585D+00
 Gap=     0.111 Goal=   None    Shift=    0.000
 Gap=     0.034 Goal=   None    Shift=    0.000
 RMSDP=3.33D-03 MaxDP=4.29D-01 DE=-1.60D-01 OVMax= 3.40D-01

 Cycle  17  Pass 1  IDiag  1:
 RMSU=  5.07D-04    CP:  9.35D-01  5.44D-03  2.93D-01  3.35D-01  1.41D+00
                    CP:  6.18D-01  4.09D-01  3.55D-01  5.77D-01  4.41D-01
                    CP:  2.76D-02  2.72D-01 -8.61D-01  1.39D+00  8.70D-01
                    CP:  7.90D-01
 E= -2523.32880414195     Delta-E=        0.122169011474 Rises=F Damp=F
 DIIS: error= 7.85D-02 at cycle  17 NSaved=  17.
 NSaved=17 IEnMin=14 EnMin= -2523.50035522760     IErMin=16 ErrMin= 2.78D-02
 ErrMax= 7.85D-02  0.00D+00 EMaxC= 1.00D-01 BMatC= 6.84D+00 BMatP= 2.30D+00
 IDIUse=2 WtCom= 0.00D+00 WtEn= 1.00D+00
 EnCoef did   100 forward-backward iterations
 Coeff-En:   0.000D+00 0.000D+00 0.000D+00 0.000D+00 0.000D+00 0.000D+00
 Coeff-En:   0.000D+00 0.000D+00 0.000D+00 0.000D+00 0.000D+00 0.000D+00
 Coeff-En:   0.000D+00 0.278D+00 0.234D-02 0.467D+00 0.253D+00
 Coeff:      0.000D+00 0.000D+00 0.000D+00 0.000D+00 0.000D+00 0.000D+00
 Coeff:      0.000D+00 0.000D+00 0.000D+00 0.000D+00 0.000D+00 0.000D+00
 Coeff:      0.000D+00 0.278D+00 0.234D-02 0.467D+00 0.253D+00
 Gap=     0.123 Goal=   None    Shift=    0.000
 Gap=     0.032 Goal=   None    Shift=    0.000
 RMSDP=3.03D-03 MaxDP=4.18D-01 DE= 1.22D-01 OVMax= 3.98D-01

 Cycle  18  Pass 1  IDiag  1:
 RMSU=  5.82D-04    CP:  9.41D-01  3.17D-03  2.61D-01  3.28D-01  1.22D+00
                    CP:  4.19D-01  5.12D-02  1.88D-02  6.31D-01  4.53D-01
                    CP:  6.79D-01 -3.72D-01 -1.31D-01  1.29D+00  1.72D+00
                    CP:  1.64D+00  2.27D-01
 E= -2523.37174423085     Delta-E=       -0.042940088894 Rises=F Damp=F
 DIIS: error= 5.60D-02 at cycle  18 NSaved=  18.
 NSaved=18 IEnMin=14 EnMin= -2523.50035522760     IErMin=16 ErrMin= 2.78D-02
 ErrMax= 5.60D-02  0.00D+00 EMaxC= 1.00D-01 BMatC= 4.30D+00 BMatP= 2.30D+00
 IDIUse=2 WtCom= 0.00D+00 WtEn= 1.00D+00
 EnCoef did   100 forward-backward iterations
 Coeff-En:   0.000D+00 0.000D+00 0.000D+00 0.000D+00 0.000D+00 0.000D+00
 Coeff-En:   0.000D+00 0.000D+00 0.000D+00 0.000D+00 0.000D+00 0.000D+00
 Coeff-En:   0.000D+00 0.291D+00 0.180D-02 0.378D+00 0.223D+00 0.105D+00
 Coeff:      0.000D+00 0.000D+00 0.000D+00 0.000D+00 0.000D+00 0.000D+00
 Coeff:      0.000D+00 0.000D+00 0.000D+00 0.000D+00 0.000D+00 0.000D+00
 Coeff:      0.000D+00 0.291D+00 0.180D-02 0.378D+00 0.223D+00 0.105D+00
 Gap=     0.087 Goal=   None    Shift=    0.000
 Gap=     0.032 Goal=   None    Shift=    0.000
 RMSDP=1.73D-03 MaxDP=2.50D-01 DE=-4.29D-02 OVMax= 2.41D-01

 Cycle  19  Pass 1  IDiag  1:
 RMSU=  1.66D-04    CP:  9.43D-01  2.59D-03  2.88D-01  2.94D-01  1.24D+00
                    CP:  3.09D-01  2.32D-01  2.73D-01  6.37D-01  1.76D-01
                    CP:  5.32D-01 -1.41D-01  1.90D-01  9.63D-01  1.08D+00
                    CP:  6.01D-01  1.76D-01  1.95D-01
 E= -2523.52913551051     Delta-E=       -0.157391279662 Rises=F Damp=F
 DIIS: error= 2.81D-02 at cycle  19 NSaved=  19.
 NSaved=19 IEnMin=19 EnMin= -2523.52913551051     IErMin=16 ErrMin= 2.78D-02
 ErrMax= 2.81D-02  0.00D+00 EMaxC= 1.00D-01 BMatC= 1.82D+00 BMatP= 2.30D+00
 IDIUse=3 WtCom= 7.22D-01 WtEn= 2.78D-01
 EnCoef did   100 forward-backward iterations
 Coeff-Com:  0.273D-02-0.905D-02 0.225D-03-0.141D-03 0.621D-02 0.249D-02
 Coeff-Com: -0.142D-03 0.524D-02-0.137D+00-0.270D-01-0.131D+00-0.531D-01
 Coeff-Com:  0.279D+00 0.361D+00-0.636D-01-0.206D+00 0.170D+00 0.154D+00
 Coeff-Com:  0.646D+00
 Coeff-En:   0.000D+00 0.000D+00 0.000D+00 0.000D+00 0.000D+00 0.000D+00
 Coeff-En:   0.000D+00 0.000D+00 0.000D+00 0.000D+00 0.000D+00 0.000D+00
 Coeff-En:   0.000D+00 0.214D+00 0.000D+00 0.175D-01 0.235D+00 0.110D+00
 Coeff-En:   0.424D+00
 Coeff:      0.197D-02-0.653D-02 0.162D-03-0.102D-03 0.449D-02 0.179D-02
 Coeff:     -0.103D-03 0.379D-02-0.987D-01-0.195D-01-0.944D-01-0.383D-01
 Coeff:      0.202D+00 0.320D+00-0.459D-01-0.144D+00 0.188D+00 0.142D+00
 Coeff:      0.584D+00
 Gap=     0.102 Goal=   None    Shift=    0.000
 Gap=     0.032 Goal=   None    Shift=    0.000
 RMSDP=2.60D-03 MaxDP=2.85D-01 DE=-1.57D-01 OVMax= 2.57D-01

 Cycle  20  Pass 1  IDiag  1:
 RMSU=  2.60D-04    CP:  9.36D-01  5.28D-03  2.99D-01  3.38D-01  1.38D+00
                    CP:  6.32D-01  2.59D-01  9.87D-02  7.54D-01  3.71D-01
                    CP:  3.01D-01  1.00D-01 -4.68D-01  1.41D+00  8.62D-01
                    CP:  9.79D-01  3.38D-01  5.91D-01  1.16D-01
 E= -2523.52507382582     Delta-E=        0.004061684689 Rises=F Damp=F
 DIIS: error= 4.78D-02 at cycle  20 NSaved=  20.
 NSaved=20 IEnMin=19 EnMin= -2523.52913551051     IErMin=16 ErrMin= 2.78D-02
 ErrMax= 4.78D-02  0.00D+00 EMaxC= 1.00D-01 BMatC= 2.85D+00 BMatP= 1.82D+00
 IDIUse=2 WtCom= 0.00D+00 WtEn= 1.00D+00
 EnCoef did    19 forward-backward iterations
 Coeff-En:   0.000D+00 0.000D+00 0.000D+00 0.000D+00 0.000D+00 0.000D+00
 Coeff-En:   0.000D+00 0.000D+00 0.000D+00 0.000D+00 0.000D+00 0.000D+00
 Coeff-En:   0.000D+00 0.447D-01 0.000D+00 0.000D+00 0.142D+00 0.000D+00
 Coeff-En:   0.506D+00 0.307D+00
 Coeff:      0.000D+00 0.000D+00 0.000D+00 0.000D+00 0.000D+00 0.000D+00
 Coeff:      0.000D+00 0.000D+00 0.000D+00 0.000D+00 0.000D+00 0.000D+00
 Coeff:      0.000D+00 0.447D-01 0.000D+00 0.000D+00 0.142D+00 0.000D+00
 Coeff:      0.506D+00 0.307D+00
 Gap=     0.095 Goal=   None    Shift=    0.000
 Gap=     0.033 Goal=   None    Shift=    0.000
 RMSDP=2.02D-03 MaxDP=2.57D-01 DE= 4.06D-03 OVMax= 2.63D-01

 Cycle  21  Pass 1  IDiag  1:
 Restarting incremental Fock formation.
 E= -2523.62209019143     Delta-E=       -0.097016365611 Rises=F Damp=F
 DIIS: error= 1.97D-02 at cycle  21 NSaved=  20.
 NSaved=20 IEnMin=20 EnMin= -2523.62209019143     IErMin=20 ErrMin= 1.97D-02
 ErrMax= 1.97D-02  0.00D+00 EMaxC= 1.00D-01 BMatC= 7.67D-01 BMatP= 1.82D+00
 IDIUse=3 WtCom= 8.03D-01 WtEn= 1.97D-01
 EnCoef did     7 forward-backward iterations
 Coeff-Com: -0.616D-03 0.286D-02-0.474D-03-0.209D-01 0.159D-03-0.303D-03
 Coeff-Com:  0.668D-02 0.112D-02-0.175D-01 0.134D-01-0.121D-01-0.310D+00
 Coeff-Com: -0.762D-01 0.398D-01 0.188D+00 0.703D-01-0.474D-02 0.342D-01
 Coeff-Com:  0.348D+00 0.738D+00
 Coeff-En:   0.000D+00 0.000D+00 0.000D+00 0.000D+00 0.000D+00 0.000D+00
 Coeff-En:   0.000D+00 0.000D+00 0.000D+00 0.000D+00 0.000D+00 0.000D+00
 Coeff-En:   0.000D+00 0.000D+00 0.000D+00 0.303D-01 0.000D+00 0.000D+00
 Coeff-En:   0.351D+00 0.619D+00
 Coeff:     -0.494D-03 0.229D-02-0.380D-03-0.168D-01 0.128D-03-0.243D-03
 Coeff:      0.536D-02 0.902D-03-0.140D-01 0.108D-01-0.967D-02-0.248D+00
 Coeff:     -0.611D-01 0.320D-01 0.151D+00 0.624D-01-0.381D-02 0.275D-01
 Coeff:      0.348D+00 0.715D+00
 Gap=     0.098 Goal=   None    Shift=    0.000
 Gap=     0.032 Goal=   None    Shift=    0.000
 RMSDP=1.38D-03 MaxDP=2.21D-01 DE=-9.70D-02 OVMax= 1.49D-01

 Cycle  22  Pass 1  IDiag  1:
 RMSU=  1.37D-03    CP:  1.01D+00
 E= -2523.67730915303     Delta-E=       -0.055218961602 Rises=F Damp=F
 DIIS: error= 1.45D-02 at cycle  22 NSaved=  20.
 NSaved=20 IEnMin=20 EnMin= -2523.67730915303     IErMin=20 ErrMin= 1.45D-02
 ErrMax= 1.45D-02  0.00D+00 EMaxC= 1.00D-01 BMatC= 2.16D-01 BMatP= 7.67D-01
 IDIUse=3 WtCom= 8.55D-01 WtEn= 1.45D-01
 EnCoef did    11 forward-backward iterations
 Coeff-Com: -0.229D-02 0.416D-02-0.183D-01-0.153D-03 0.261D-03 0.214D-03
 Coeff-Com:  0.191D-02-0.710D-02 0.864D-02-0.680D-02-0.129D+00 0.194D-01
 Coeff-Com: -0.878D-02 0.109D+00 0.294D-01-0.744D-01 0.938D-01 0.133D+00
 Coeff-Com:  0.373D+00 0.474D+00
 Coeff-En:   0.000D+00 0.000D+00 0.000D+00 0.000D+00 0.000D+00 0.000D+00
 Coeff-En:   0.000D+00 0.000D+00 0.000D+00 0.000D+00 0.000D+00 0.438D-01
 Coeff-En:   0.000D+00 0.000D+00 0.815D-02 0.000D+00 0.000D+00 0.845D-03
 Coeff-En:   0.270D+00 0.677D+00
 Coeff:     -0.195D-02 0.356D-02-0.157D-01-0.130D-03 0.223D-03 0.183D-03
 Coeff:      0.163D-02-0.607D-02 0.739D-02-0.582D-02-0.110D+00 0.229D-01
 Coeff:     -0.751D-02 0.936D-01 0.263D-01-0.636D-01 0.802D-01 0.114D+00
 Coeff:      0.358D+00 0.503D+00
 Gap=     0.102 Goal=   None    Shift=    0.000
 Gap=     0.032 Goal=   None    Shift=    0.000
 RMSDP=5.19D-04 MaxDP=5.23D-02 DE=-5.52D-02 OVMax= 5.89D-02

 Cycle  23  Pass 1  IDiag  1:
 RMSU=  4.66D-04    CP:  1.01D+00  8.33D-01
 E= -2523.68302477670     Delta-E=       -0.005715623664 Rises=F Damp=F
 DIIS: error= 1.18D-02 at cycle  23 NSaved=  20.
 NSaved=20 IEnMin=20 EnMin= -2523.68302477670     IErMin=20 ErrMin= 1.18D-02
 ErrMax= 1.18D-02  0.00D+00 EMaxC= 1.00D-01 BMatC= 1.59D-01 BMatP= 2.16D-01
 IDIUse=3 WtCom= 8.82D-01 WtEn= 1.18D-01
 EnCoef did     4 forward-backward iterations
 Coeff-Com: -0.112D-02 0.308D-02-0.749D-02-0.114D-03 0.211D-02-0.236D-02
 Coeff-Com:  0.696D-03 0.107D-01-0.596D-02-0.531D-01 0.201D-01-0.483D-01
 Coeff-Com:  0.109D+00 0.652D-02-0.618D-01 0.422D-01-0.113D-01 0.188D+00
 Coeff-Com:  0.509D+00 0.301D+00
 Coeff-En:   0.000D+00 0.000D+00 0.000D+00 0.000D+00 0.000D+00 0.000D+00
 Coeff-En:   0.000D+00 0.000D+00 0.000D+00 0.000D+00 0.000D+00 0.000D+00
 Coeff-En:   0.000D+00 0.000D+00 0.000D+00 0.000D+00 0.000D+00 0.168D+00
 Coeff-En:   0.398D+00 0.434D+00
 Coeff:     -0.987D-03 0.272D-02-0.661D-02-0.100D-03 0.186D-02-0.208D-02
 Coeff:      0.614D-03 0.946D-02-0.526D-02-0.469D-01 0.178D-01-0.426D-01
 Coeff:      0.958D-01 0.575D-02-0.545D-01 0.372D-01-0.999D-02 0.185D+00
 Coeff:      0.496D+00 0.316D+00
 Gap=     0.096 Goal=   None    Shift=    0.000
 Gap=     0.031 Goal=   None    Shift=    0.000
 RMSDP=3.47D-04 MaxDP=4.85D-02 DE=-5.72D-03 OVMax= 3.67D-02

 Cycle  24  Pass 1  IDiag  1:
 RMSU=  7.59D-05    CP:  1.01D+00  6.50D-01  5.19D-01
 E= -2523.69099813853     Delta-E=       -0.007973361832 Rises=F Damp=F
 DIIS: error= 4.50D-03 at cycle  24 NSaved=  20.
 NSaved=20 IEnMin=20 EnMin= -2523.69099813853     IErMin=20 ErrMin= 4.50D-03
 ErrMax= 4.50D-03  0.00D+00 EMaxC= 1.00D-01 BMatC= 3.64D-02 BMatP= 1.59D-01
 IDIUse=3 WtCom= 9.55D-01 WtEn= 4.50D-02
 EnCoef did     1 forward-backward iterations
 Coeff-Com:  0.101D-04 0.159D-03-0.122D-02 0.372D-02-0.112D-01-0.165D-02
 Coeff-Com: -0.919D-02-0.301D-02-0.320D-01 0.256D-01-0.150D-01 0.497D-01
 Coeff-Com:  0.701D-02 0.109D-01-0.770D-02-0.951D-03 0.813D-01 0.253D+00
 Coeff-Com:  0.420D-01 0.609D+00
 Coeff-En:   0.000D+00 0.000D+00 0.000D+00 0.000D+00 0.000D+00 0.000D+00
 Coeff-En:   0.000D+00 0.000D+00 0.000D+00 0.000D+00 0.000D+00 0.000D+00
 Coeff-En:   0.000D+00 0.000D+00 0.000D+00 0.000D+00 0.000D+00 0.244D+00
 Coeff-En:   0.418D-01 0.714D+00
 Coeff:      0.961D-05 0.152D-03-0.116D-02 0.355D-02-0.107D-01-0.158D-02
 Coeff:     -0.877D-02-0.288D-02-0.305D-01 0.245D-01-0.144D-01 0.475D-01
 Coeff:      0.670D-02 0.105D-01-0.736D-02-0.908D-03 0.776D-01 0.252D+00
 Coeff:      0.420D-01 0.613D+00
 Gap=     0.097 Goal=   None    Shift=    0.000
 Gap=     0.032 Goal=   None    Shift=    0.000
 RMSDP=1.39D-04 MaxDP=2.18D-02 DE=-7.97D-03 OVMax= 1.76D-02

 Cycle  25  Pass 1  IDiag  1:
 RMSU=  2.93D-05    CP:  1.01D+00  7.44D-01  4.74D-01  5.61D-01
 E= -2523.69316927935     Delta-E=       -0.002171140822 Rises=F Damp=F
 DIIS: error= 1.50D-03 at cycle  25 NSaved=  20.
 NSaved=20 IEnMin=20 EnMin= -2523.69316927935     IErMin=20 ErrMin= 1.50D-03
 ErrMax= 1.50D-03  0.00D+00 EMaxC= 1.00D-01 BMatC= 3.11D-03 BMatP= 3.64D-02
 IDIUse=3 WtCom= 9.85D-01 WtEn= 1.50D-02
 Coeff-Com:  0.432D-04 0.649D-03 0.575D-03-0.495D-02-0.535D-03-0.826D-02
 Coeff-Com: -0.248D-04-0.863D-02 0.118D-01 0.143D-01 0.117D-03 0.890D-02
 Coeff-Com:  0.841D-02-0.150D-01 0.810D-02-0.158D-01 0.219D-01-0.205D+00
 Coeff-Com:  0.225D+00 0.959D+00
 Coeff-En:   0.000D+00 0.000D+00 0.000D+00 0.000D+00 0.000D+00 0.000D+00
 Coeff-En:   0.000D+00 0.000D+00 0.000D+00 0.000D+00 0.000D+00 0.000D+00
 Coeff-En:   0.000D+00 0.000D+00 0.000D+00 0.000D+00 0.255D-01 0.000D+00
 Coeff-En:   0.000D+00 0.974D+00
 Coeff:      0.425D-04 0.639D-03 0.566D-03-0.487D-02-0.527D-03-0.813D-02
 Coeff:     -0.244D-04-0.850D-02 0.117D-01 0.141D-01 0.115D-03 0.876D-02
 Coeff:      0.829D-02-0.147D-01 0.798D-02-0.156D-01 0.220D-01-0.202D+00
 Coeff:      0.222D+00 0.959D+00
 Gap=     0.097 Goal=   None    Shift=    0.000
 Gap=     0.031 Goal=   None    Shift=    0.000
 RMSDP=4.80D-05 MaxDP=5.84D-03 DE=-2.17D-03 OVMax= 7.01D-03

 Cycle  26  Pass 1  IDiag  1:
 RMSU=  1.60D-05    CP:  1.01D+00  7.46D-01  3.96D-01  8.80D-01  5.91D-01
 E= -2523.69331019370     Delta-E=       -0.000140914343 Rises=F Damp=F
 DIIS: error= 5.90D-04 at cycle  26 NSaved=  20.
 NSaved=20 IEnMin=20 EnMin= -2523.69331019370     IErMin=20 ErrMin= 5.90D-04
 ErrMax= 5.90D-04  0.00D+00 EMaxC= 1.00D-01 BMatC= 6.67D-04 BMatP= 3.11D-03
 IDIUse=3 WtCom= 9.94D-01 WtEn= 5.90D-03
 Coeff-Com:  0.407D-03-0.993D-05-0.492D-03 0.118D-03-0.321D-02-0.114D-03
 Coeff-Com:  0.126D-02 0.585D-02 0.114D-01-0.892D-02 0.310D-02 0.225D-02
 Coeff-Com: -0.637D-02 0.379D-02-0.291D-01-0.303D-01-0.841D-01-0.119D-02
 Coeff-Com:  0.428D+00 0.708D+00
 Coeff-En:   0.000D+00 0.000D+00 0.000D+00 0.000D+00 0.000D+00 0.000D+00
 Coeff-En:   0.000D+00 0.000D+00 0.000D+00 0.000D+00 0.000D+00 0.000D+00
 Coeff-En:   0.000D+00 0.000D+00 0.000D+00 0.000D+00 0.000D+00 0.000D+00
 Coeff-En:   0.207D+00 0.793D+00
 Coeff:      0.405D-03-0.987D-05-0.489D-03 0.118D-03-0.319D-02-0.113D-03
 Coeff:      0.125D-02 0.582D-02 0.114D-01-0.886D-02 0.308D-02 0.224D-02
 Coeff:     -0.633D-02 0.377D-02-0.289D-01-0.301D-01-0.836D-01-0.118D-02
 Coeff:      0.426D+00 0.708D+00
 Gap=     0.097 Goal=   None    Shift=    0.000
 Gap=     0.031 Goal=   None    Shift=    0.000
 RMSDP=1.99D-05 MaxDP=2.41D-03 DE=-1.41D-04 OVMax= 3.56D-03

 Cycle  27  Pass 1  IDiag  1:
 RMSU=  9.15D-06    CP:  1.01D+00  7.45D-01  4.33D-01  8.53D-01  4.88D-01
                    CP:  9.86D-01
 E= -2523.69333715263     Delta-E=       -0.000026958939 Rises=F Damp=F
 DIIS: error= 3.63D-04 at cycle  27 NSaved=  20.
 NSaved=20 IEnMin=20 EnMin= -2523.69333715263     IErMin=20 ErrMin= 3.63D-04
 ErrMax= 3.63D-04  0.00D+00 EMaxC= 1.00D-01 BMatC= 2.26D-04 BMatP= 6.67D-04
 IDIUse=3 WtCom= 9.96D-01 WtEn= 3.63D-03
 Coeff-Com:  0.262D-03 0.593D-05-0.341D-04-0.913D-03-0.111D-03-0.180D-03
 Coeff-Com:  0.187D-02 0.571D-02-0.442D-02 0.158D-02 0.135D-02-0.474D-02
 Coeff-Com:  0.483D-02-0.132D-01-0.243D-01-0.335D-01-0.393D-01 0.158D+00
 Coeff-Com:  0.505D+00 0.442D+00
 Coeff-En:   0.000D+00 0.000D+00 0.000D+00 0.000D+00 0.000D+00 0.000D+00
 Coeff-En:   0.000D+00 0.000D+00 0.000D+00 0.000D+00 0.000D+00 0.000D+00
 Coeff-En:   0.000D+00 0.000D+00 0.000D+00 0.000D+00 0.000D+00 0.000D+00
 Coeff-En:   0.478D-01 0.952D+00
 Coeff:      0.261D-03 0.591D-05-0.340D-04-0.910D-03-0.110D-03-0.179D-03
 Coeff:      0.186D-02 0.568D-02-0.440D-02 0.158D-02 0.135D-02-0.472D-02
 Coeff:      0.481D-02-0.131D-01-0.243D-01-0.334D-01-0.391D-01 0.157D+00
 Coeff:      0.503D+00 0.444D+00
 Gap=     0.097 Goal=   None    Shift=    0.000
 Gap=     0.031 Goal=   None    Shift=    0.000
 RMSDP=8.80D-06 MaxDP=1.28D-03 DE=-2.70D-05 OVMax= 1.16D-03

 Cycle  28  Pass 1  IDiag  1:
 RMSU=  2.06D-06    CP:  1.01D+00  7.51D-01  4.33D-01  8.38D-01  5.22D-01
                    CP:  1.06D+00  9.09D-01
 E= -2523.69335103976     Delta-E=       -0.000013887123 Rises=F Damp=F
 DIIS: error= 1.55D-04 at cycle  28 NSaved=  20.
 NSaved=20 IEnMin=20 EnMin= -2523.69335103976     IErMin=20 ErrMin= 1.55D-04
 ErrMax= 1.55D-04  0.00D+00 EMaxC= 1.00D-01 BMatC= 3.23D-05 BMatP= 2.26D-04
 IDIUse=3 WtCom= 9.98D-01 WtEn= 1.55D-03
 Coeff-Com:  0.157D-03-0.205D-04-0.339D-04 0.260D-03-0.547D-03-0.203D-03
 Coeff-Com:  0.153D-02-0.107D-02 0.821D-03 0.478D-03-0.349D-02 0.337D-02
 Coeff-Com: -0.347D-02-0.136D-01-0.943D-02-0.376D-01 0.241D-01 0.265D+00
 Coeff-Com:  0.354D+00 0.419D+00
 Coeff-En:   0.000D+00 0.000D+00 0.000D+00 0.000D+00 0.000D+00 0.000D+00
 Coeff-En:   0.000D+00 0.000D+00 0.000D+00 0.000D+00 0.000D+00 0.000D+00
 Coeff-En:   0.000D+00 0.000D+00 0.000D+00 0.000D+00 0.000D+00 0.000D+00
 Coeff-En:   0.000D+00 0.100D+01
 Coeff:      0.157D-03-0.204D-04-0.339D-04 0.260D-03-0.546D-03-0.203D-03
 Coeff:      0.152D-02-0.107D-02 0.820D-03 0.477D-03-0.349D-02 0.336D-02
 Coeff:     -0.347D-02-0.136D-01-0.942D-02-0.375D-01 0.241D-01 0.265D+00
 Coeff:      0.354D+00 0.420D+00
 Gap=     0.097 Goal=   None    Shift=    0.000
 Gap=     0.031 Goal=   None    Shift=    0.000
 RMSDP=3.25D-06 MaxDP=4.52D-04 DE=-1.39D-05 OVMax= 3.83D-04

 Cycle  29  Pass 1  IDiag  1:
 RMSU=  1.01D-06    CP:  1.01D+00  7.52D-01  4.30D-01  8.50D-01  5.09D-01
                    CP:  1.12D+00  9.15D-01  1.07D+00
 E= -2523.69335306682     Delta-E=       -0.000002027061 Rises=F Damp=F
 DIIS: error= 6.70D-05 at cycle  29 NSaved=  20.
 NSaved=20 IEnMin=20 EnMin= -2523.69335306682     IErMin=20 ErrMin= 6.70D-05
 ErrMax= 6.70D-05  0.00D+00 EMaxC= 1.00D-01 BMatC= 5.18D-06 BMatP= 3.23D-05
 IDIUse=1 WtCom= 1.00D+00 WtEn= 0.00D+00
 Coeff-Com:  0.852D-05-0.566D-04 0.372D-03-0.817D-04-0.344D-03-0.916D-03
 Coeff-Com:  0.764D-03 0.259D-03-0.367D-03-0.819D-03-0.357D-05 0.191D-02
 Coeff-Com:  0.247D-02 0.624D-02-0.636D-02-0.435D-01 0.111D-01 0.370D-01
 Coeff-Com:  0.191D+00 0.802D+00
 Coeff:      0.852D-05-0.566D-04 0.372D-03-0.817D-04-0.344D-03-0.916D-03
 Coeff:      0.764D-03 0.259D-03-0.367D-03-0.819D-03-0.357D-05 0.191D-02
 Coeff:      0.247D-02 0.624D-02-0.636D-02-0.435D-01 0.111D-01 0.370D-01
 Coeff:      0.191D+00 0.802D+00
 Gap=     0.097 Goal=   None    Shift=    0.000
 Gap=     0.031 Goal=   None    Shift=    0.000
 RMSDP=2.21D-06 MaxDP=2.94D-04 DE=-2.03D-06 OVMax= 2.95D-04

 Cycle  30  Pass 1  IDiag  1:
 RMSU=  8.06D-07    CP:  1.01D+00  7.53D-01  4.30D-01  8.59D-01  4.88D-01
                    CP:  1.18D+00  9.54D-01  1.25D+00  1.46D+00
 E= -2523.69335341023     Delta-E=       -0.000000343407 Rises=F Damp=F
 DIIS: error= 2.02D-05 at cycle  30 NSaved=  20.
 NSaved=20 IEnMin=20 EnMin= -2523.69335341023     IErMin=20 ErrMin= 2.02D-05
 ErrMax= 2.02D-05  0.00D+00 EMaxC= 1.00D-01 BMatC= 5.46D-07 BMatP= 5.18D-06
 IDIUse=1 WtCom= 1.00D+00 WtEn= 0.00D+00
 Coeff-Com:  0.189D-04-0.615D-04 0.148D-03-0.167D-04-0.996D-04-0.752D-04
 Coeff-Com:  0.555D-04-0.224D-03 0.180D-03-0.396D-03 0.482D-03 0.207D-02
 Coeff-Com:  0.321D-02 0.174D-02-0.160D-01-0.165D-01-0.184D-01 0.241D-01
 Coeff-Com:  0.331D+00 0.689D+00
 Coeff:      0.189D-04-0.615D-04 0.148D-03-0.167D-04-0.996D-04-0.752D-04
 Coeff:      0.555D-04-0.224D-03 0.180D-03-0.396D-03 0.482D-03 0.207D-02
 Coeff:      0.321D-02 0.174D-02-0.160D-01-0.165D-01-0.184D-01 0.241D-01
 Coeff:      0.331D+00 0.689D+00
 Gap=     0.097 Goal=   None    Shift=    0.000
 Gap=     0.031 Goal=   None    Shift=    0.000
 RMSDP=9.27D-07 MaxDP=1.74D-04 DE=-3.43D-07 OVMax= 3.51D-04

 Cycle  31  Pass 1  IDiag  1:
 RMSU=  4.58D-07    CP:  1.01D+00  7.54D-01  4.30D-01  8.64D-01  4.73D-01
                    CP:  1.19D+00  1.00D+00  1.32D+00  1.56D+00  8.07D-01
 E= -2523.69335343641     Delta-E=       -0.000000026188 Rises=F Damp=F
 DIIS: error= 1.72D-05 at cycle  31 NSaved=  20.
 NSaved=20 IEnMin=20 EnMin= -2523.69335343641     IErMin=20 ErrMin= 1.72D-05
 ErrMax= 1.72D-05  0.00D+00 EMaxC= 1.00D-01 BMatC= 3.29D-07 BMatP= 5.46D-07
 IDIUse=1 WtCom= 1.00D+00 WtEn= 0.00D+00
 Coeff-Com:  0.316D-04 0.142D-05-0.823D-04-0.137D-03 0.268D-04-0.262D-04
 Coeff-Com: -0.107D-03 0.200D-03-0.436D-04 0.441D-03 0.466D-03 0.217D-02
 Coeff-Com:  0.125D-02-0.670D-02-0.862D-02-0.816D-02 0.424D-03 0.741D-01
 Coeff-Com:  0.332D+00 0.612D+00
 Coeff:      0.316D-04 0.142D-05-0.823D-04-0.137D-03 0.268D-04-0.262D-04
 Coeff:     -0.107D-03 0.200D-03-0.436D-04 0.441D-03 0.466D-03 0.217D-02
 Coeff:      0.125D-02-0.670D-02-0.862D-02-0.816D-02 0.424D-03 0.741D-01
 Coeff:      0.332D+00 0.612D+00
 Gap=     0.097 Goal=   None    Shift=    0.000
 Gap=     0.031 Goal=   None    Shift=    0.000
 RMSDP=5.04D-07 MaxDP=5.39D-05 DE=-2.62D-08 OVMax= 9.71D-05

 Cycle  32  Pass 1  IDiag  1:
 RMSU=  1.98D-07    CP:  1.01D+00  7.53D-01  4.31D-01  8.65D-01  4.73D-01
                    CP:  1.19D+00  1.02D+00  1.38D+00  1.64D+00  9.03D-01
                    CP:  1.13D+00
 E= -2523.69335346075     Delta-E=       -0.000000024340 Rises=F Damp=F
 DIIS: error= 3.83D-06 at cycle  32 NSaved=  20.
 NSaved=20 IEnMin=20 EnMin= -2523.69335346075     IErMin=20 ErrMin= 3.83D-06
 ErrMax= 3.83D-06  0.00D+00 EMaxC= 1.00D-01 BMatC= 1.55D-08 BMatP= 3.29D-07
 IDIUse=1 WtCom= 1.00D+00 WtEn= 0.00D+00
 Coeff-Com:  0.423D-05 0.609D-05-0.242D-04-0.601D-05-0.200D-04 0.337D-04
 Coeff-Com:  0.246D-04 0.614D-04-0.364D-04-0.430D-03-0.125D-03 0.767D-03
 Coeff-Com:  0.295D-02 0.571D-03-0.271D-02-0.935D-02-0.440D-01 0.153D-01
 Coeff-Com:  0.194D+00 0.843D+00
 Coeff:      0.423D-05 0.609D-05-0.242D-04-0.601D-05-0.200D-04 0.337D-04
 Coeff:      0.246D-04 0.614D-04-0.364D-04-0.430D-03-0.125D-03 0.767D-03
 Coeff:      0.295D-02 0.571D-03-0.271D-02-0.935D-02-0.440D-01 0.153D-01
 Coeff:      0.194D+00 0.843D+00
 Gap=     0.097 Goal=   None    Shift=    0.000
 Gap=     0.031 Goal=   None    Shift=    0.000
 RMSDP=3.19D-07 MaxDP=5.72D-05 DE=-2.43D-08 OVMax= 5.75D-05

 >>>>>>>>>> Convergence criterion not met.
 SCF Done:  E(UB3LYP) =  -2523.69335346     A.U. after   33 cycles
            NFock= 32  Conv=0.32D-06     -V/T= 2.3852
 <Sx>= 0.0000 <Sy>= 0.0000 <Sz>=11.5000 <S**2>=******* S=11.5203
 <L.S>=  0.00000000000    
 KE= 1.821856744230D+03 PE=-8.369675735160D+03 EE= 2.948260888121D+03
 Annihilation of the first spin contaminant:
 S**2 before annihilation   144.2368,   after   143.7596
 Leave Link  502 at Thu Aug 14 14:48:02 2025, MaxMem=  6710886400 cpu:           53657.0 elap:             677.7
 (Enter /N/soft/rhel8/gaussian/g16/l508.exe)
 Two-electron integrals replicated using symmetry.
 Tight linear equation convergence will be used.
 UB3LYP wavefunction.
 Quadratic Convergence SCF Method.
 Line search only if initial step raises energy.
 Fock matrices will be formed incrementally for  20 cycles.
 FoFJK:  IHMeth= 1 ICntrl=       0 DoSepK=F KAlg= 0 I1Cent=           0 FoldK=F
 IRaf= 910000000 NMat=       1 IRICut=       1 DoRegI=T DoRafI=F ISym2E= 2 IDoP0=0 IntGTp=1.
 FoFCou: FMM=F IPFlag=           0 FMFlag=      100000 FMFlg1=           0
         NFxFlg=           0 DoJE=F BraDBF=F KetDBF=F FulRan=T
         wScrn=  0.000000 ICntrl=         0 IOpCl=  1 I1Cent=           0 NGrid=           0
         NMat0=    1 NMatS0=      1 NMatT0=    0 NMatD0=    1 NMtDS0=    0 NMtDT0=    0
 Integrals replicated using symmetry in FoFCou.
 Defaulting to unpruned grid for atomic number  64.
 Defaulting to unpruned grid for atomic number  64.
 Defaulting to unpruned grid for atomic number  64.
 Defaulting to unpruned grid for atomic number  64.
 Defaulting to unpruned grid for atomic number  64.
 Defaulting to unpruned grid for atomic number  64.
 Defaulting to unpruned grid for atomic number  64.
 Defaulting to unpruned grid for atomic number  64.
 Defaulting to unpruned grid for atomic number  64.
 Defaulting to unpruned grid for atomic number  64.
 Defaulting to unpruned grid for atomic number  64.
 Defaulting to unpruned grid for atomic number  64.
 Defaulting to unpruned grid for atomic number  64.
 Defaulting to unpruned grid for atomic number  64.
 Defaulting to unpruned grid for atomic number  64.
 Defaulting to unpruned grid for atomic number  64.
 Defaulting to unpruned grid for atomic number  64.
 Defaulting to unpruned grid for atomic number  64.
 Defaulting to unpruned grid for atomic number  64.
 Defaulting to unpruned grid for atomic number  64.
 Defaulting to unpruned grid for atomic number  64.
 Defaulting to unpruned grid for atomic number  64.
 Defaulting to unpruned grid for atomic number  64.
 Defaulting to unpruned grid for atomic number  64.
 Defaulting to unpruned grid for atomic number  64.
 Defaulting to unpruned grid for atomic number  64.
 Defaulting to unpruned grid for atomic number  64.
 Defaulting to unpruned grid for atomic number  64.
 Defaulting to unpruned grid for atomic number  64.
 Defaulting to unpruned grid for atomic number  64.
 Defaulting to unpruned grid for atomic number  64.
 Defaulting to unpruned grid for atomic number  64.
 Defaulting to unpruned grid for atomic number  64.
 Defaulting to unpruned grid for atomic number  64.
 Defaulting to unpruned grid for atomic number  64.
 Defaulting to unpruned grid for atomic number  64.
 Defaulting to unpruned grid for atomic number  64.
 Defaulting to unpruned grid for atomic number  64.
 Defaulting to unpruned grid for atomic number  64.
 Defaulting to unpruned grid for atomic number  64.
 Defaulting to unpruned grid for atomic number  64.
 Defaulting to unpruned grid for atomic number  64.
 Defaulting to unpruned grid for atomic number  64.
 Defaulting to unpruned grid for atomic number  64.
 Defaulting to unpruned grid for atomic number  64.
 Defaulting to unpruned grid for atomic number  64.
 Defaulting to unpruned grid for atomic number  64.
 Defaulting to unpruned grid for atomic number  64.
 Defaulting to unpruned grid for atomic number  64.
 Defaulting to unpruned grid for atomic number  64.
 Defaulting to unpruned grid for atomic number  64.
 Defaulting to unpruned grid for atomic number  64.
 Defaulting to unpruned grid for atomic number  64.
 Defaulting to unpruned grid for atomic number  64.
 Defaulting to unpruned grid for atomic number  64.
 Defaulting to unpruned grid for atomic number  64.
 Defaulting to unpruned grid for atomic number  64.
 Defaulting to unpruned grid for atomic number  64.
 Defaulting to unpruned grid for atomic number  64.
 Defaulting to unpruned grid for atomic number  64.
 Defaulting to unpruned grid for atomic number  64.
 Defaulting to unpruned grid for atomic number  64.
 Defaulting to unpruned grid for atomic number  64.
 Defaulting to unpruned grid for atomic number  64.
 Defaulting to unpruned grid for atomic number  64.
 Defaulting to unpruned grid for atomic number  64.
 Defaulting to unpruned grid for atomic number  64.
 Defaulting to unpruned grid for atomic number  64.
 Defaulting to unpruned grid for atomic number  64.
 Defaulting to unpruned grid for atomic number  64.
 Defaulting to unpruned grid for atomic number  64.
 Defaulting to unpruned grid for atomic number  64.
 Defaulting to unpruned grid for atomic number  64.
 Defaulting to unpruned grid for atomic number  64.
 Defaulting to unpruned grid for atomic number  64.
 Defaulting to unpruned grid for atomic number  64.
 Defaulting to unpruned grid for atomic number  64.
 Defaulting to unpruned grid for atomic number  64.
 Defaulting to unpruned grid for atomic number  64.
 Defaulting to unpruned grid for atomic number  64.
 Defaulting to unpruned grid for atomic number  64.
 Defaulting to unpruned grid for atomic number  64.
 Defaulting to unpruned grid for atomic number  64.
 Defaulting to unpruned grid for atomic number  64.
 Defaulting to unpruned grid for atomic number  64.
 Defaulting to unpruned grid for atomic number  64.
 Defaulting to unpruned grid for atomic number  64.
 Defaulting to unpruned grid for atomic number  64.
 Iteration   1 EE= -2523.69335346281                                    Grad=6.886D-05 Max rot=    0.0005 deg.
 QCNR:  CnvC1=6.89D-10 CnvC2=6.89D-09
 LinEq1:  Iter=  0 NonCon=     1 RMS=7.19D-07 Max=5.44D-05 NDo=     1
 AX will form     1 AO Fock derivatives at one time.
 LinEq1:  Iter=  1 NonCon=     1 RMS=2.84D-06 Max=3.83D-04 NDo=     1
 LinEq1:  Iter=  2 NonCon=     1 RMS=2.44D-06 Max=3.38D-04 NDo=     1
 LinEq1:  Iter=  3 NonCon=     1 RMS=2.73D-06 Max=1.72D-04 NDo=     1
 LinEq1:  Iter=  4 NonCon=     1 RMS=9.75D-06 Max=7.90D-04 NDo=     1
 LinEq1:  Iter=  5 NonCon=     1 RMS=5.92D-06 Max=4.40D-04 NDo=     1
 LinEq1:  Iter=  6 NonCon=     1 RMS=6.86D-06 Max=7.37D-04 NDo=     1
 LinEq1:  Iter=  7 NonCon=     1 RMS=2.21D-05 Max=1.16D-03 NDo=     1
 LinEq1:  Iter=  8 NonCon=     1 RMS=6.29D-05 Max=5.29D-03 NDo=     1
 LinEq1:  Iter=  9 NonCon=     1 RMS=6.03D-05 Max=4.74D-03 NDo=     1
 LinEq1:  Iter= 10 NonCon=     1 RMS=3.89D-05 Max=1.78D-03 NDo=     1
 LinEq1:  Iter= 11 NonCon=     1 RMS=2.36D-05 Max=1.27D-03 NDo=     1
 LinEq1:  Iter= 12 NonCon=     1 RMS=1.47D-05 Max=6.68D-04 NDo=     1
 LinEq1:  Iter= 13 NonCon=     1 RMS=1.81D-05 Max=6.28D-04 NDo=     1
 LinEq1:  Iter= 14 NonCon=     1 RMS=1.08D-05 Max=4.55D-04 NDo=     1
 LinEq1:  Iter= 15 NonCon=     1 RMS=7.10D-06 Max=2.46D-04 NDo=     1
 LinEq1:  Iter= 16 NonCon=     1 RMS=3.46D-06 Max=1.49D-04 NDo=     1
 LinEq1:  Iter= 17 NonCon=     1 RMS=2.47D-06 Max=1.47D-04 NDo=     1
 LinEq1:  Iter= 18 NonCon=     1 RMS=9.74D-07 Max=4.51D-05 NDo=     1
 LinEq1:  Iter= 19 NonCon=     1 RMS=3.00D-07 Max=1.92D-05 NDo=     1
 LinEq1:  Iter= 20 NonCon=     1 RMS=1.16D-07 Max=4.60D-06 NDo=     1
 LinEq1:  Iter= 21 NonCon=     1 RMS=7.12D-08 Max=2.25D-06 NDo=     1
 LinEq1:  Iter= 22 NonCon=     1 RMS=3.31D-08 Max=1.36D-06 NDo=     1
 LinEq1:  Iter= 23 NonCon=     1 RMS=1.44D-08 Max=5.64D-07 NDo=     1
 LinEq1:  Iter= 24 NonCon=     1 RMS=6.95D-09 Max=4.93D-07 NDo=     1
 LinEq1:  Iter= 25 NonCon=     1 RMS=3.78D-09 Max=3.56D-07 NDo=     1
 LinEq1:  Iter= 26 NonCon=     1 RMS=2.44D-09 Max=1.65D-07 NDo=     1
 LinEq1:  Iter= 27 NonCon=     1 RMS=1.07D-09 Max=4.73D-08 NDo=     1
 LinEq1:  Iter= 28 NonCon=     1 RMS=4.49D-10 Max=1.63D-08 NDo=     1
 LinEq1:  Iter= 29 NonCon=     1 RMS=2.45D-10 Max=7.01D-09 NDo=     1
 LinEq1:  Iter= 30 NonCon=     0 RMS=9.41D-11 Max=4.35D-09 NDo=     1
 Linear equations converged to 6.886D-10 6.886D-09 after    30 iterations.
 Angle between quadratic step and gradient=  80.50 degrees.
     ILin= 1 X=0.000D+00 Y=-2.523693353463D+03 DE= 0.00D+00 F= -2.69D-09
 RMSU=  3.33D-07    CP:  1.00D+00
     ILin= 2 X=1.000D+00 Y=-2.523693353464D+03 DE=-1.34D-09
 Iteration   2 EE= -2523.69335346415     Delta-E=       -0.000000001344 Grad=4.763D-09 Max rot=    0.0000 deg.
 Rotation gradient small -- convergence achieved.
 SCF Done:  E(UB3LYP) =  -2523.69335346     a.u. after    2 cycles
            Convg  =    0.4763D-08                    32 Fock formations.
              S**2 = *******                  -V/T =  2.3852
 <Sx>= 0.0000 <Sy>= 0.0000 <Sz>=11.5000 <S**2>=******* S=11.5203
 <L.S>=  0.00000000000    
 Annihilation of the first spin contaminant:
[...]
     11  0.000000D+00 -0.600812D-01 -0.481850D-01  0.000000D+00  0.309357D-01
     12 -0.263683D-03  0.000000D+00  0.000000D+00 -0.257261D-02  0.333312D-05
     13 -0.403913D-05 -0.333859D-01  0.158441D-01 -0.126383D-05  0.185843D-01
     14  0.139142D-05  0.538789D-01 -0.832963D-01  0.385104D-05 -0.193303D-01
     15 -0.342985D-02 -0.241906D-05  0.262212D-05 -0.266105D-02  0.114624D-05
     16  0.112055D-05  0.486792D-02 -0.315456D-02  0.000000D+00  0.645677D-03
     17  0.201701D-05 -0.315373D-02 -0.903062D-02  0.000000D+00  0.296585D-01
     18 -0.257669D-02  0.000000D+00  0.000000D+00 -0.270475D-03  0.000000D+00
               11            12            13            14            15 
     11  0.697684D-01
     12  0.000000D+00  0.343148D-02
     13  0.466951D-02  0.000000D+00  0.120103D+00
     14 -0.138288D-01  0.000000D+00 -0.540231D-01  0.109044D+00
     15  0.000000D+00  0.100168D-02  0.484356D-05 -0.484322D-05  0.434221D-02
     16  0.570359D-02  0.000000D+00 -0.120748D-01  0.160577D-02  0.000000D+00
     17  0.410348D-02  0.000000D+00 -0.223048D-01  0.167968D-01 -0.122639D-05
     18  0.000000D+00  0.979133D-03  0.000000D+00  0.000000D+00  0.101763D-02
               16            17            18 
     16  0.651104D-01
     17  0.226122D-01  0.162587D+00
     18  0.000000D+00 -0.445199D-05  0.338565D-02
 FormGI is forming the generalized inverse of G from B-inverse, IUseBI=4.
 Force constants in internal coordinates: 
                1             2             3             4             5 
      1  0.231859D-01
      2  0.467170D-02  0.231307D-01
      3  0.218518D-02  0.125159D-01  0.993863D-01
      4  0.122941D-01  0.223899D-02  0.135697D-01  0.988770D-01
      5  0.910753D-02  0.772145D-02 -0.485971D-02 -0.119794D-01  0.116377D+00
      6  0.141116D-01 -0.187468D-03 -0.114762D-01 -0.610307D-03  0.987547D-02
      7 -0.341315D-03  0.138667D-01 -0.683169D-03 -0.114849D-01 -0.144103D-01
      8  0.769477D-02  0.905372D-02 -0.119199D-01 -0.490219D-02  0.196916D-01
      9  0.122850D-02  0.117127D-02 -0.293014D-02 -0.295804D-02  0.159491D-01
     10  0.157841D-03  0.154991D-02  0.155880D-01 -0.447054D-02  0.753836D-02
     11  0.162645D-02  0.164089D-03 -0.441919D-02  0.156130D-01  0.137385D-01
     12  0.555794D-03  0.542725D-03  0.140989D-01  0.141005D-01  0.532780D-02
     13 -0.486276D-02 -0.138959D-03  0.953382D-03 -0.630728D-03 -0.854047D-02
     14 -0.466882D-02 -0.874160D-03  0.227336D-02  0.291018D-01 -0.132028D-01
     15 -0.274962D-03 -0.471036D-02 -0.727136D-03  0.984476D-03  0.261742D-02
     16 -0.106139D-02 -0.448345D-02  0.290388D-01  0.228897D-02 -0.471830D-02
     17  0.390923D-02  0.367805D-02  0.270389D-02  0.260429D-02 -0.100260D-01
     18  0.000000D+00  0.000000D+00  0.000000D+00  0.000000D+00  0.000000D+00
     19  0.000000D+00  0.000000D+00  0.000000D+00  0.000000D+00  0.000000D+00
     20  0.000000D+00  0.000000D+00  0.000000D+00  0.000000D+00  0.000000D+00
     21  0.000000D+00  0.000000D+00  0.000000D+00  0.000000D+00  0.000000D+00
     22  0.000000D+00  0.000000D+00  0.000000D+00  0.000000D+00  0.000000D+00
     23  0.000000D+00  0.000000D+00  0.000000D+00  0.000000D+00  0.000000D+00
     24  0.000000D+00  0.000000D+00  0.000000D+00  0.000000D+00  0.000000D+00
     25  0.000000D+00  0.000000D+00  0.000000D+00  0.000000D+00  0.000000D+00
                6             7             8             9            10 
      6  0.929579D-01
      7 -0.384980D-02  0.916178D-01
      8 -0.145707D-01  0.101506D-01  0.115815D+00
      9 -0.190798D-02 -0.181640D-02  0.159055D-01  0.457217D-02
     10 -0.577404D-02  0.248904D-01  0.138291D-01  0.292248D-02  0.144608D-01
     11  0.252370D-01 -0.564819D-02  0.742186D-02  0.286287D-02 -0.116709D-03
     12  0.213709D-01  0.210586D-01  0.534551D-02  0.121318D-02  0.114216D-01
     13 -0.191344D-02  0.420950D-02  0.255295D-02 -0.251624D-02 -0.823544D-03
     14  0.147402D-01 -0.479209D-03 -0.484744D-02 -0.434356D-02 -0.371696D-02
     15  0.425116D-02 -0.194440D-02 -0.856017D-02 -0.250154D-02 -0.186443D-02
     16 -0.471757D-03  0.143818D-01 -0.131174D-01 -0.427620D-02  0.862649D-02
     17 -0.429746D-03 -0.448698D-03 -0.989823D-02  0.445615D-03 -0.234505D-03
     18  0.000000D+00  0.000000D+00  0.000000D+00  0.000000D+00  0.000000D+00
     19  0.000000D+00  0.000000D+00  0.000000D+00  0.000000D+00  0.000000D+00
     20  0.000000D+00  0.000000D+00  0.000000D+00  0.000000D+00  0.000000D+00
     21  0.000000D+00  0.000000D+00  0.000000D+00  0.000000D+00  0.000000D+00
     22  0.000000D+00  0.000000D+00  0.000000D+00  0.000000D+00  0.000000D+00
     23  0.000000D+00  0.000000D+00  0.000000D+00  0.000000D+00  0.000000D+00
     24  0.000000D+00  0.000000D+00  0.000000D+00  0.000000D+00  0.000000D+00
     25  0.000000D+00  0.000000D+00  0.000000D+00  0.000000D+00  0.000000D+00
               11            12            13            14            15 
     11  0.145271D-01
     12  0.115475D-01  0.217560D-01
     13 -0.179780D-02 -0.105106D-03  0.642866D-02
     14  0.878856D-02  0.941517D-02  0.729112D-02  0.220360D-01
     15 -0.741977D-03 -0.104864D-03  0.405759D-02  0.545100D-02  0.637585D-02
     16 -0.358297D-02  0.931973D-02  0.538398D-02  0.638697D-02  0.714969D-02
     17 -0.323095D-03 -0.100321D-02 -0.797002D-02 -0.839856D-02 -0.793190D-02
     18  0.000000D+00  0.000000D+00  0.000000D+00  0.000000D+00  0.000000D+00
     19  0.000000D+00  0.000000D+00  0.000000D+00  0.000000D+00  0.000000D+00
     20  0.000000D+00  0.000000D+00  0.000000D+00  0.000000D+00  0.000000D+00
     21  0.000000D+00  0.000000D+00  0.000000D+00  0.000000D+00  0.000000D+00
     22  0.000000D+00  0.000000D+00  0.000000D+00  0.000000D+00  0.000000D+00
     23  0.000000D+00  0.000000D+00  0.000000D+00  0.000000D+00  0.000000D+00
     24  0.000000D+00  0.000000D+00  0.000000D+00  0.000000D+00  0.000000D+00
     25  0.000000D+00  0.000000D+00  0.000000D+00  0.000000D+00  0.000000D+00
               16            17            18            19            20 
     16  0.216983D-01
     17 -0.825747D-02  0.154563D-01
     18  0.000000D+00  0.000000D+00  0.183457D-03
     19  0.000000D+00  0.000000D+00  0.117073D-02  0.159902D-01
     20  0.000000D+00  0.000000D+00 -0.183494D-03 -0.117097D-02  0.183530D-03
     21  0.000000D+00  0.000000D+00 -0.108345D-02 -0.669633D-02  0.108367D-02
     22  0.000000D+00  0.000000D+00 -0.391783D-03 -0.250017D-02  0.391862D-03
     23  0.000000D+00  0.000000D+00  0.470235D-03  0.277332D-02 -0.470330D-03
     24  0.000000D+00  0.000000D+00  0.391891D-03  0.250086D-02 -0.391970D-03
     25  0.000000D+00  0.000000D+00 -0.561490D-03 -0.124862D-01  0.561603D-03
               21            22            23            24            25 
     21  0.159403D-01
     22  0.231378D-02  0.836678D-03
     23 -0.127453D-01 -0.100422D-02  0.116191D-01
     24 -0.231442D-02 -0.836908D-03  0.100449D-02  0.837137D-03
     25  0.308846D-02  0.119910D-02 -0.120147D-02 -0.119943D-02  0.110227D-01
 Leave Link  716 at Thu Aug 14 17:49:24 2025, MaxMem=  6710886400 cpu:               3.0 elap:               0.2
 (Enter /N/soft/rhel8/gaussian/g16/l103.exe)

 GradGradGradGradGradGradGradGradGradGradGradGradGradGradGradGradGradGrad
 Berny optimization.
 Red2BG is reusing G-inverse.
 Internal  Forces:  Max     0.000145056 RMS     0.000060849
 Search for a local minimum.
 Step number   1 out of a maximum of    2
 All quantities printed in internal units (Hartrees-Bohrs-Radians)
 Second derivative matrix not updated -- analytic derivatives used.
 ITU=  0
     Eigenvalues ---    0.00227   0.01940   0.02213   0.02248   0.03495
     Eigenvalues ---    0.04493   0.06483   0.10735   0.10810   0.12563
     Eigenvalues ---    0.13452   0.15870
 Angle between quadratic step and forces=  42.36 degrees.
 Linear search not attempted -- first point.
 Iteration  1 RMS(Cart)=  0.00189667 RMS(Int)=  0.00000198
 Iteration  2 RMS(Cart)=  0.00000157 RMS(Int)=  0.00000097
 Iteration  3 RMS(Cart)=  0.00000000 RMS(Int)=  0.00000097
 ITry= 1 IFail=0 DXMaxC= 5.07D-03 DCOld= 1.00D+10 DXMaxT= 3.00D-01 DXLimC= 3.00D+00 Rises=F
 Variable       Old X    -DE/DX   Delta X   Delta X   Delta X     New X
                                 (Linear)    (Quad)   (Total)
    R1        7.23328  -0.00005   0.00000  -0.00266  -0.00266   7.23062
    R2        7.23073   0.00008   0.00000   0.00450   0.00450   7.23523
    R3        3.95675  -0.00001   0.00000   0.00023   0.00023   3.95698
    R4        3.95705   0.00015   0.00000   0.00060   0.00060   3.95765
    R5        3.95747  -0.00008   0.00000  -0.00047  -0.00047   3.95700
    R6        3.95650   0.00012   0.00000   0.00111   0.00111   3.95761
    R7        3.95730  -0.00008   0.00000  -0.00057  -0.00057   3.95673
    R8        3.95637  -0.00002   0.00000   0.00010   0.00010   3.95646
    A1        1.04753  -0.00003   0.00000  -0.00051  -0.00051   1.04702
    A2        1.46617  -0.00008   0.00000  -0.00205  -0.00206   1.46411
    A3        1.46517   0.00006   0.00000   0.00083   0.00083   1.46600
    A4        1.88380   0.00001   0.00000  -0.00071  -0.00071   1.88309
    A5        1.46416   0.00005   0.00000   0.00176   0.00176   1.46591
    A6        1.88186   0.00014   0.00000   0.00304   0.00304   1.88490
    A7        1.46489   0.00001   0.00000  -0.00002  -0.00002   1.46487
    A8        1.88347  -0.00004   0.00000  -0.00147  -0.00147   1.88199
    A9        2.30660  -0.00003   0.00000  -0.00122  -0.00122   2.30538
    D1       -0.00000   0.00000   0.00000   0.00001   0.00001   0.00001
    D2       -0.00001   0.00000   0.00000   0.00001   0.00001   0.00001
    D3        0.00000  -0.00000   0.00000  -0.00001  -0.00001  -0.00001
    D4        0.00000   0.00000   0.00000  -0.00000  -0.00000  -0.00000
    D5        0.00001  -0.00000   0.00000  -0.00002  -0.00002  -0.00001
    D6        0.00001  -0.00000   0.00000  -0.00002  -0.00002  -0.00002
    D7       -0.00001   0.00000   0.00000   0.00002   0.00002   0.00001
    D8       -0.00000  -0.00000   0.00000   0.00001   0.00001   0.00001
         Item               Value     Threshold  Converged?
 Maximum Force            0.000145     0.000450     YES
 RMS     Force            0.000061     0.000300     YES
 Maximum Displacement     0.005067     0.001800     NO 
 RMS     Displacement     0.001897     0.001200     NO 
 Predicted change in Energy=-8.044965D-07
                           ----------------------------
                           ! Non-Optimized Parameters !
                           ! (Angstroms and Degrees)  !
 --------------------------                            --------------------------
 ! Name  Definition              Value          Derivative Info.                !
 --------------------------------------------------------------------------------
 ! R1    R(1,2)                  3.8263         -DE/DX =    0.0                 !
 ! R2    R(1,3)                  3.8287         -DE/DX =    0.0001              !
 ! R3    R(1,4)                  2.0939         -DE/DX =    0.0                 !
 ! R4    R(1,6)                  2.0943         -DE/DX =    0.0001              !
 ! R5    R(2,5)                  2.094          -DE/DX =   -0.0001              !
 ! R6    R(2,6)                  2.0943         -DE/DX =    0.0001              !
 ! R7    R(3,4)                  2.0938         -DE/DX =   -0.0001              !
 ! R8    R(3,5)                  2.0937         -DE/DX =    0.0                 !
 ! A1    A(2,1,3)               59.9897         -DE/DX =    0.0                 !
 ! A2    A(2,1,4)               83.8874         -DE/DX =   -0.0001              !
 ! A3    A(3,1,6)               83.9955         -DE/DX =    0.0001              !
 ! A4    A(4,1,6)              107.8932         -DE/DX =    0.0                 !
 ! A5    A(1,2,5)               83.9906         -DE/DX =    0.0                 !
 ! A6    A(5,2,6)              107.9967         -DE/DX =    0.0001              !
 ! A7    A(1,3,5)               83.9308         -DE/DX =    0.0                 !
 ! A8    A(4,3,5)              107.8301         -DE/DX =    0.0                 !
 ! A9    A(2,5,3)              132.0888         -DE/DX =    0.0                 !
 ! D1    D(3,1,2,5)              0.0003         -DE/DX =    0.0                 !
 ! D2    D(4,1,2,5)              0.0005         -DE/DX =    0.0                 !
 ! D3    D(2,1,3,5)             -0.0003         -DE/DX =    0.0                 !
 ! D4    D(6,1,3,5)             -0.0002         -DE/DX =    0.0                 !
 ! D5    D(1,2,5,3)             -0.0007         -DE/DX =    0.0                 !
 ! D6    D(6,2,5,3)             -0.001          -DE/DX =    0.0                 !
 ! D7    D(1,3,5,2)              0.0007         -DE/DX =    0.0                 !
 ! D8    D(4,3,5,2)              0.0007         -DE/DX =    0.0                 !
 --------------------------------------------------------------------------------
 GradGradGradGradGradGradGradGradGradGradGradGradGradGradGradGradGradGrad

 Leave Link  103 at Thu Aug 14 17:49:24 2025, MaxMem=  6710886400 cpu:               4.0 elap:               0.2
 (Enter /N/soft/rhel8/gaussian/g16/l9999.exe)

 ----------------------------------------------------------------------

 Electric dipole moment (input orientation):
 (Debye = 10**-18 statcoulomb cm , SI units = C m)
                  (au)            (Debye)         (10**-30 SI)
   Tot        0.181255D-02      0.460704D-02      0.153674D-01
   x          0.984439D-03      0.250219D-02      0.834642D-02
   y         -0.152191D-02     -0.386831D-02     -0.129033D-01
   z          0.000000D+00      0.000000D+00      0.000000D+00

 Dipole polarizability, Alpha (input orientation).
 (esu units = cm**3 , SI units = C**2 m**2 J**-1)
 Alpha(0;0):
               (au)            (10**-24 esu)      (10**-40 SI)
   iso        0.145020D+04      0.214898D+03      0.239107D+03
   aniso      0.128881D+04      0.190982D+03      0.212496D+03
   xx         0.187878D+04      0.278406D+03      0.309769D+03
   yx        -0.738456D+00     -0.109428D+00     -0.121755D+00
   yy         0.188084D+04      0.278712D+03      0.310108D+03
   zx         0.383655D-01      0.568518D-02      0.632562D-02
   zy        -0.454038D-01     -0.672815D-02     -0.748608D-02
   zz         0.590999D+03      0.875770D+02      0.974425D+02

 ----------------------------------------------------------------------

 Dipole orientation:
    64         -3.37602114         -2.18410402          1.02779521
    64          0.92225045          0.59730065         -4.08189968
    64          2.48648749          1.60769270          2.90841357
     8         -0.79612202         -0.51581600          3.52114484
     8          3.00620464          1.94468960         -0.99916341
     8         -2.17879754         -1.40890540         -2.66327514

 Electric dipole moment (dipole orientation):
 (Debye = 10**-18 statcoulomb cm , SI units = C m)
                  (au)            (Debye)         (10**-30 SI)
   Tot        0.181255D-02      0.460704D-02      0.153674D-01
   x          0.000000D+00      0.000000D+00      0.000000D+00
   y          0.000000D+00      0.000000D+00      0.000000D+00
   z          0.181255D-02      0.460704D-02      0.153674D-01

 Dipole polarizability, Alpha (dipole orientation).
 (esu units = cm**3 , SI units = C**2 m**2 J**-1)
 Alpha(0;0):
               (au)            (10**-24 esu)      (10**-40 SI)
   iso        0.145020D+04      0.214898D+03      0.239107D+03
   aniso      0.128881D+04      0.190982D+03      0.212496D+03
   xx         0.149885D+04      0.222107D+03      0.247127D+03
   yx         0.587246D+03      0.870209D+02      0.968238D+02
   yy         0.970861D+03      0.143867D+03      0.160073D+03
   zx        -0.415122D+00     -0.615147D-01     -0.684443D-01
   zy        -0.532008D+00     -0.788354D-01     -0.877163D-01
   zz         0.188090D+04      0.278721D+03      0.310119D+03

 ----------------------------------------------------------------------
 1\1\GINC-C41\Freq\UB3LYP\GenECP\Gd3O3(1-,24)\CALHUIZ\14-Aug-2025\0\\#P
  Geom=AllCheck Guess=TCheck SCRF=Check GenChk UB3LYP/GenECP Freq\\Gd3O
 3_ring_24\\-1,24\Gd,-1.4911986641,-1.6123248953,-0.0000344478\Gd,-0.68
 49605074,2.1294882102,-0.0001368399\Gd,2.1515333253,-0.4412731127,0.00
 0033081\O,0.5905144543,-1.8371734866,0.0000275785\O,1.3036808249,1.472
 9852719,-0.0000514212\O,-1.918313773,0.4376353424,-0.0001116505\\Versi
 on=AS64L-G16RevA.03\State=24-A\HF=-2523.7187552\S2=144.281968\S2-1=0.\
 S2A=143.761454\RMSD=6.658e-09\RMSF=7.085e-05\ZeroPoint=0.0072693\Therm
 al=0.0163325\Dipole=0.0009844,-0.0015219,0.0000004\DipoleDeriv=-2.1956
 062,-0.3669625,-0.0000448,-0.3660787,-2.2712119,0.0000597,-0.0000414,0
 .0000537,-0.359146,-1.9316891,0.2183136,-0.0000541,0.2185713,-2.542419
 2,0.0000827,-0.0000559,0.0000898,-0.36013,-2.5678046,0.1525836,-0.0000
 705,0.1535067,-1.8987268,0.0000635,-0.0000731,0.0000564,-0.3585492,3.4
 28042,1.1000791,0.0000635,1.0975729,0.3647151,0.0000178,0.0000644,0.00
 00163,0.0256033,2.0860867,-1.8815596,0.0001274,-1.8781985,1.7209445,-0
 .0001183,0.0001241,-0.0001173,0.0257376,0.1809712,0.7775457,-0.0000214
 ,0.7746263,3.6266982,-0.0001054,-0.0000182,-0.000099,0.0264842\Polar=1
 878.7771163,-0.7384564,1880.839009,0.0383655,-0.0454038,590.9988255\Qu
 adrupole=-3.9661781,-3.9981136,7.9642918,0.012097,-0.0003455,0.0003844
 \PG=C01 [X(Gd3O3)]\NImag=0\\0.14003067,-0.00189283,0.13893633,0.000003
 72,-0.00000398,0.00298044,0.00985292,-0.02201835,0.00000093,0.14276736
 ,0.00358546,-0.03103246,0.00000115,0.00126514,0.13889803,0.00000011,0.
 00000050,0.00119505,0.00000364,-0.00000505,0.00388265,-0.02880105,-0.0
 0027716,-0.00000083,-0.01276696,0.00950369,-0.00000075,0.13719311,-0.0
 2587942,0.00767711,-0.00000088,0.03511122,-0.00841728,0.00000143,0.000
 12950,0.14125215,-0.00000011,-0.00000017,0.00120635,-0.00000151,0.0000
 0061,0.00119253,0.00000394,-0.00000395,0.00310526,-0.10086171,-0.01477
 148,-0.00000211,-0.00829847,-0.00444166,-0.00000009,-0.06710710,-0.022
 05089,-0.00000131,0.15703726,0.02322184,-0.01596912,0.00000069,-0.0044
 4948,0.00411112,-0.00000029,-0.06008120,-0.04818502,-0.00000047,0.0309
 3575,0.06976838,-0.00000322,-0.00000034,-0.00257600,-0.00000009,-0.000
 00027,-0.00026368,-0.00000021,0.00000060,-0.00257261,0.00000333,-0.000
 00060,0.00343148,-0.00284187,0.00759562,-0.00000028,-0.09038456,0.0482
 1859,-0.00000404,-0.03338592,0.01584415,-0.00000126,0.01858435,0.00466
 951,0.00000037,0.12010277,0.00759882,-0.00133155,0.00000022,0.01026983
 ,-0.02738355,0.00000139,0.05387890,-0.08329633,0.00000385,-0.01933027,
 -0.01382885,-0.00000010,-0.05402305,0.10904351,-0.00000032,0.00000025,
 -0.00027061,-0.00000281,0.00000259,-0.00342985,-0.00000242,0.00000262,
 -0.00266105,0.00000115,0.00000061,0.00100168,0.00000484,-0.00000484,0.
 00434221,-0.01737896,0.03136420,-0.00000144,-0.04117030,-0.05813122,0.
 00000112,0.00486792,-0.00315456,0.00000024,0.00064568,0.00570359,-0.00
 000018,-0.01207477,0.00160577,-0.00000044,0.06511043,-0.00663387,-0.09
 828031,0.00000280,-0.02017836,-0.07617587,0.00000202,-0.00315373,-0.00
 903062,0.00000014,0.02965855,0.00410348,0.00000072,-0.02230482,0.01679
 677,-0.00000123,0.02261222,0.16258655,-0.00000019,0.00000374,-0.002535
 24,-0.00000017,0.00000098,-0.00257669,0.00000026,0.00000019,-0.0002704
 7,-0.00000098,0.00000006,0.00097913,0.00000038,-0.00000052,0.00101763,
 0.00000070,-0.00000445,0.00338565\\0.00003125,0.00013019,0.,-0.0001696
 5,0.00005423,-0.00000014,-0.00001679,0.00001927,-0.00000001,-0.0000439
 5,-0.00007779,-0.00000005,0.00005308,-0.00006450,0.00000015,0.00014606
 ,-0.00006140,0.00000005\\\@


 Not by the face shall a man be known, but by the mask.
                               -- Karen Blixen
 Job cpu time:       2 days 20 hours 18 minutes 20.1 seconds.
 Elapsed time:       0 days  0 hours 48 minutes 30.9 seconds.
 File lengths (MBytes):  RWF=    609 Int=      0 D2E=      0 Chk=     41 Scr=      1
 Normal termination of Gaussian 16 at Thu Aug 14 17:49:24 2025.
