 Set GAUSS_MDEF to "92GB".
 Set GAUSS_PDEF to "56".
 Entering Gaussian System, Link 0=gdv
 Initial command:
 /home/hhratchian/gaussian/gdv-20250101-j30+/gdv/local/l1.exe "/scratch/aaboutaka/1544067/Gau-1237058.inp" -scrdir="/scratch/aaboutaka/1544067/"
 Default is to use a total of  56 processors:
                               56 via shared-memory
                                1 via Linda
 Entering Link 1 = /home/hhratchian/gaussian/gdv-20250101-j30+/gdv/local/l1.exe PID=   1237059.
  
 Copyright (c) 1988-2024, Gaussian, Inc.  All Rights Reserved.
  
 This is the private, development version of
 the Gaussian(R) DV system of programs. It is based on
 the Gaussian(R) 16 system (copyright 2016, Gaussian, Inc.),
 the Gaussian(R) 09 system (copyright 2009, Gaussian, Inc.),
 the Gaussian(R) 03 system (copyright 2003, Gaussian, Inc.),
 the Gaussian(R) 98 system (copyright 1998, Gaussian, Inc.),
 the Gaussian(R) 94 system (copyright 1995, Gaussian, Inc.),
 the Gaussian 92(TM) system (copyright 1992, Gaussian, Inc.),
 the Gaussian 90(TM) system (copyright 1990, Gaussian, Inc.),
 the Gaussian 88(TM) system (copyright 1988, Gaussian, Inc.),
 the Gaussian 86(TM) system (copyright 1986, Carnegie Mellon
 University), and the Gaussian 82(TM) system (copyright 1983,
 Carnegie Mellon University). Gaussian is a federally registered
 trademark of Gaussian, Inc.
  
 This software contains proprietary and confidential information,
 including trade secrets, belonging to Gaussian, Inc.
  
 This software is provided under written license and may be
 used, copied, transmitted, or stored only in accord with that
 written license.
  
 The following legend is applicable only to US Government
 contracts under FAR:
  
                    RESTRICTED RIGHTS LEGEND
  
 Use, reproduction and disclosure by the US Government is
 subject to restrictions as set forth in subparagraphs (a)
 and (c) of the Commercial Computer Software - Restricted
 Rights clause in FAR 52.227-19.
  
 Gaussian, Inc.
 340 Quinnipiac St., Bldg. 40, Wallingford CT 06492
  
  
 ---------------------------------------------------------------
 Warning -- This program may not be used in any manner that
 competes with the business of Gaussian, Inc. or will provide
 assistance to any competitor of Gaussian, Inc.  The licensee
 of this program is prohibited from giving any competitor of
 Gaussian, Inc. access to this program.  By using this program,
 the user acknowledges that Gaussian, Inc. is engaged in the
 business of creating and licensing software in the field of
 computational chemistry and represents and warrants to the
 licensee that it is not a competitor of Gaussian, Inc. and that
 it will not use this program in any manner prohibited above.
 ---------------------------------------------------------------
  

 Cite this work as:
 Gaussian Development Version, Revision J.30+,
 M. J. Frisch, G. W. Trucks, G. Scalmani, J. R. Cheeseman, X. Li, 
 J. Bloino, B. G. Janesko, A. V. Marenich, J. Zheng, F. Lipparini, 
 A. Jenkins, A. Liu, H. Liu, H. B. Schlegel, G. E. Scuseria, 
 M. A. Robb, V. Barone, G. A. Petersson, H. Nakatsuji, B. Mennucci, 
 C. Adamo, N. Rega, M. Caricato, H. P. Hratchian, J. V. Ortiz, 
 F. Pawlowski, A. F. Izmaylov, H. Hu, C. Liao, J. L. Sonnenberg, 
 D. Williams-Young, F. Ding, R. Gomperts, F. Egidi, J. Goings, 
 B. Peng, A. Petrone, T. Henderson, D. Ranasinghe, V. G. Zakrzewski, 
 J. Gao, G. Zheng, W. Liang, M. Hada, M. Ehara, K. Toyota, R. Fukuda, 
 J. Hasegawa, M. Ishida, T. Nakajima, Y. Honda, O. Kitao, H. Nakai, 
 T. Vreven, K. Throssell, J. A. Montgomery, Jr., J. E. Peralta, 
 F. Ogliaro, M. J. Bearpark, J. J. Heyd, E. N. Brothers, K. N. Kudin, 
 V. N. Staroverov, T. A. Keith, R. Kobayashi, J. Normand, 
 K. Raghavachari, A. P. Rendell, J. C. Burant, S. S. Iyengar, 
 M. Cossi, J. M. Millam, M. Klene, R. Cammi, R. L. Martin, O. Farkas, 
 J. B. Foresman, and D. J. Fox, Gaussian, Inc., Wallingford CT, 2024.
 
 *******************************************
 Gaussian DV:  ES64L-GDVRevJ.30+ 18-Dec-2024
                 10-Jul-2025 
 *******************************************
 %oldchk=h2o_neutral.chk
 %chk=h2o_neutral_fc.chk
 Copying data from "h2o_neutral.chk" to current chk file "h2o_neutral_fc.chk"
 IOpt=  2 FromEx=T IUOpen= 4 IOptOp= 5 NList=   0 IFRang= 0 IUIn= 4 IUOut= 2.
 ----------------------------------------------------------------------
 #P B3LYP/6-31G(d) ChkBasis Freq=(ReadFC,FC,ReadFCHT) Geom=Checkpoint N
 OSYMM Guess=Read
 ----------------------------------------------------------------------
 1/29=2,37=-1,38=1,172=1/1;
 2/12=2,15=1/2;
 3/5=7,6=2,7=1,11=2,14=-4,25=1,30=1,67=1,74=-5,116=-2/1;
 7/8=1,25=11,30=1,44=-1,71=10,121=1/16,18;
 99/5=5/99;
 Leave Link    1 at Thu Jul 10 12:07:32 2025, MaxMem= 12348030976 cpu:               1.8 elap:               0.1
 (Enter /home/hhratchian/gaussian/gdv-20250101-j30+/gdv/local/l101.exe)
 
  Hrant - IAPOps =                         0
  Hrant - IAPOp1 =                         0
  Hrant - IAPOp2 =                         0
  Hrant - DoAP   =   F
 
 ----------------------------------------
 Franck–Condon Calculation: H2O neutral
 ----------------------------------------
 Structure from the checkpoint file:  "h2o_neutral_fc.chk"
 Charge =     0 Multiplicity =     1
 No Z-Matrix found in chk file; cartesian coordinates used.
  O                                                -0.000000000000     -0.000000000000      0.117790000000
  H                                                 0.000000000000      0.757160000000     -0.471160000000
  H                                                -0.000000000000     -0.757160000000     -0.471160000000
 Recover connectivity data from disk.
 ITRead=  0  0  0
 MicOpt= -1 -1 -1
 NAtoms=      3 NQM=        3 NQMF=       0 NMMI=      0 NMMIF=      0
                NMic=       0 NMicF=      0.
                    Isotopes and Nuclear Properties:
 (Nuclear quadrupole moments (NQMom) in fm**2, nuclear magnetic moments (NMagM)
  in nuclear magnetons)

  Atom         1           2           3
 IAtWgt=          16           1           1
 AtmWgt=  15.9949146   1.0078250   1.0078250
 NucSpn=           0           1           1
 AtZEff=    5.600000    1.000000    1.000000
 NQMom=    0.0000000   0.0000000   0.0000000
 NMagM=    0.0000000   2.7928460   2.7928460
 AtZNuc=   8.0000000   1.0000000   1.0000000
 Leave Link  101 at Thu Jul 10 12:07:32 2025, MaxMem= 12348030976 cpu:               1.4 elap:               0.1
 (Enter /home/hhratchian/gaussian/gdv-20250101-j30+/gdv/l202.exe)
                          Input orientation:                          
 ---------------------------------------------------------------------
 Center     Atomic      Atomic             Coordinates (Angstroms)
 Number     Number       Type             X           Y           Z
 ---------------------------------------------------------------------
      1          8           0       -0.000000   -0.000000    0.117790
      2          1           0        0.000000    0.757160   -0.471160
      3          1           0       -0.000000   -0.757160   -0.471160
 ---------------------------------------------------------------------
                    Distance matrix (angstroms):
                    1          2          3
     1  O    0.000000
     2  H    0.959246   0.000000
     3  H    0.959246   1.514320   0.000000
 Symmetry turned off by external request.
 Stoichiometry    H2O
 Framework group  C2V[C2(O),SGV(H2)]
 Deg. of freedom     2
 Full point group                 C2V     NOp   4
 Rotational constants (GHZ):         813.9366644         437.3475880         284.4863078
 Leave Link  202 at Thu Jul 10 12:07:32 2025, MaxMem= 12348030976 cpu:               0.8 elap:               0.0
 (Enter /home/hhratchian/gaussian/gdv-20250101-j30+/gdv/local/l301.exe)
 Basis read from chk: "h2o_neutral_fc.chk" (6D, 7F)
 No pseudopotential information found on chk file.
    13 basis functions,    30 primitive gaussians,    13 cartesian basis functions
     5 alpha electrons        5 beta electrons
       nuclear repulsion energy         9.1759991401 Hartrees.
 IExCor=      4002 DFT=T Ex+Corr=B3LYP ScaHFX=  0.200000
 ScaDFX=  0.800000  0.720000  1.000000  0.810000  1.000000  0.000000
 ScaDFX=  0.000000  0.000000  0.000000  0.000000  0.000000  0.000000
 Grid=UltraFine IRanWt=     -1 IRanGd=            0 ICorTp=0 IEDCtl=  2004
 NAtoms=    3 NActive=    3 NUniq=    3 SFac= 1.00D+00 NAtFMM=   60 NAOKFM=F Big=F
 Integral buffers will be    131072 words long.
 Raffenetti 2 integral format.
 Two-electron integral symmetry is turned off.
 No density basis found on file 200724.
 Leave Link  301 at Thu Jul 10 12:07:32 2025, MaxMem= 12348030976 cpu:               1.4 elap:               0.1
 (Enter /home/hhratchian/gaussian/gdv-20250101-j30+/gdv/l716.exe)
 Electric field and nuclear coordinate derivatives read from checkpoint file.
 Dipole        =-1.17281561D-16 3.55555189D-16-9.69280155D-01
 Polarizability= 1.48029947D+00 3.58583443D-15 6.98751855D+00
                 4.74295229D-16 1.12486007D-12 4.83978168D+00
 Full mass-weighted force constant matrix:
 Low frequencies --- -608.5029 -538.7004 -371.9677    0.0011    0.0015    0.0024
 Low frequencies --- 1618.3906 3858.4227 3987.8787
 Diagonal vibrational polarizability:
        0.0000000       0.0080274       0.6398929
 Harmonic frequencies (cm**-1), IR intensities (KM/Mole), Raman scattering
 activities (A**4/AMU), depolarization ratios for plane and unpolarized
 incident light, reduced masses (AMU), force constants (mDyne/A),
 and normal coordinates:
                      1                      2                      3
                      A                      A                      A
 Frequencies --   1618.3906              3858.4227              3987.7840
 Red. masses --      1.0881                 1.0402                 1.0816
 Frc consts  --      1.6791                 9.1237                10.1340
 IR Inten    --     61.5862                 3.9373                 4.7435
  Atom  AN      X      Y      Z        X      Y      Z        X      Y      Z
     1   8    -0.00  -0.00  -0.07     0.00   0.00   0.05    -0.00  -0.07   0.00
     2   1     0.00   0.40   0.58     0.00   0.60  -0.37     0.00   0.56  -0.43
     3   1    -0.00  -0.40   0.58    -0.00  -0.60  -0.37     0.00   0.56   0.43

 -------------------
 - Thermochemistry -
 -------------------
 Temperature 298.150 Kelvin.  Pressure 1.00000 Atm.
 Atom     1 has atomic number  8 and mass  15.99491
 Atom     2 has atomic number  1 and mass   1.00783
 Atom     3 has atomic number  1 and mass   1.00783
 Molecular mass:    18.01056 amu.
 Principal axes and moments of inertia in atomic units:
                                 1                 2                 3
     Eigenvalues --            2.217299          4.126560          6.343860
           X                   0.000000          0.000000          1.000000
           Y                   1.000000         -0.000000         -0.000000
           Z                   0.000000          1.000000         -0.000000
 This molecule is an asymmetric top.
 Rotational symmetry number  2.
 Rotational temperatures (Kelvin)     39.06280    20.98938    13.65319
 Rotational constants (GHZ):         813.93666   437.34759   284.48631
 Zero-point vibrational energy      56610.9 (Joules/Mol)
                                   13.53032 (Kcal/Mol)
 Vibrational temperatures:   2328.50  5551.41  5737.53
          (Kelvin)
 
 Zero-point correction=                           0.021562 (Hartree/Particle)
 Thermal correction to Energy=                    0.024397
 Thermal correction to Enthalpy=                  0.025342
 Thermal correction to Gibbs Free Energy=         0.003925
 Sum of electronic and zero-point Energies=            -76.363439
 Sum of electronic and thermal Energies=               -76.360603
 Sum of electronic and thermal Enthalpies=             -76.359659
 Sum of electronic and thermal Free Energies=          -76.381076
 
                     E (Thermal)             CV                S
                      KCal/Mol        Cal/Mol-Kelvin    Cal/Mol-Kelvin
 Total                   15.310              6.011             45.076
 Electronic               0.000              0.000              0.000
 Translational            0.889              2.981             34.608
 Rotational               0.889              2.981             10.461
 Vibrational             13.532              0.049              0.007
                       Q            Log10(Q)             Ln(Q)
 Total Bot       0.156612D-01         -1.805175         -4.156569
 Total V=0       0.129604D+09          8.112620         18.679997
 Vib (Bot)       0.120888D-09         -9.917618        -22.836160
 Vib (V=0)       0.100041D+01          0.000176          0.000406
 Electronic      0.100000D+01          0.000000          0.000000
 Translational   0.300431D+07          6.477745         14.915559
 Rotational      0.431220D+02          1.634699          3.764033
 
                                               Franck–Condon Calculation: H2O n
 eutral
                                                             IR Spectrum
 
     3    3                                                                      1                                                   
     9    8                                                                      6                                                   
     8    5                                                                      1                                                   
     8    8                                                                      8                                                   
 
     X    X                                                                      X                                                   
     X                                                                           X                                                   
                                                                                 X                                                   
                                                                                 X                                                   
                                                                                 X                                                   
                                                                                 X                                                   
                                                                                 X                                                   
                                                                                 X                                                   
                                                                                 X                                                   
                                                                                 X                                                   
                                                                                 X                                                   
                                                                                 X                                                   
                                                                                 X                                                   
                                                                                 X                                                   
                                                                                 X                                                   
                                                                                 X                                                   
                                                                                 X                                                   
                                                                                 X                                                   
                                                                                 X                                                   
                                                                                 X                                                   
 
 -------------------------------------------------------------------
 Center     Atomic                   Forces (Hartrees/Bohr)
 Number     Number              X              Y              Z
 -------------------------------------------------------------------
      1        8          -0.000000000   -0.000000000    0.010473551
      2        1          -0.000000000    0.020233772   -0.005236776
      3        1           0.000000000   -0.020233772   -0.005236776
 -------------------------------------------------------------------
 Cartesian Forces:  Max     0.020233772 RMS     0.010452825
 Force constants in Cartesian coordinates: 
                1             2             3             4             5 
      1 -0.937285D-02
      2  0.000000D+00  0.701036D+00
      3  0.000000D+00  0.000000D+00  0.423791D+00
      4  0.468642D-02  0.000000D+00  0.000000D+00 -0.940431D-02
      5  0.000000D+00 -0.350518D+00  0.201374D+00  0.000000D+00  0.389808D+00
      6  0.000000D+00  0.276297D+00 -0.211895D+00  0.000000D+00 -0.238835D+00
      7  0.468642D-02  0.000000D+00  0.000000D+00  0.471788D-02  0.000000D+00
      8  0.000000D+00 -0.350518D+00 -0.201374D+00  0.000000D+00 -0.392899D-01
      9  0.000000D+00 -0.276297D+00 -0.211895D+00  0.000000D+00  0.374619D-01
                6             7             8             9 
      6  0.206339D+00
      7  0.000000D+00 -0.940431D-02
      8 -0.374619D-01  0.000000D+00  0.389808D+00
      9  0.555588D-02  0.000000D+00  0.238835D+00  0.206339D+00
 Leave Link  716 at Thu Jul 10 12:07:32 2025, MaxMem= 12348030976 cpu:               0.2 elap:               0.0
 (Enter /home/hhratchian/gaussian/gdv-20250101-j30+/gdv/l718.exe)

 **********************************************************************

                Generation of the Franck-Condon spectrum

 **********************************************************************

     ==================================================
            Parameters for vibronic calculations
     ==================================================

 Additional Input for Vibronic Calculations
 ------------------------------------------
 Spectrum=(Broadening=Stick,Lower=-10000.0,Upper=40000.0) temperature=298.15
 --- end of non-standard input.

     ==================================================
               Information on the Simulation
     ==================================================

 General framework: TIME-INDEPENDENT
 Spectroscopy: ONE-PHOTON ABSORPTION
 Model for the transition: ADIABATIC HESSIAN
 Approx. of the electronic transition moment(s): FC
 Temperature of simulation:  298.15K

     ==================================================
                  Treatment of Input Data
     ==================================================

 Data for initial state
 ----------------------
 Data taken from current calculation.
 Normal modes recovered from file.

 Data for final state
 --------------------
 Data taken from checkpoint file "h2o_anion.chk"
 Normal modes recovered from file.
 No electronic transition dipole moment has been found.
 A fully-allowed transition is assumed for FC calculations.

     ==================================================
                  Superposition Procedure
     ==================================================

 Geometry of initial state set in Eckart orientation.
              New orientation in initial state              
 ---------------------------------------------------------------------
 Center     Atomic                     Coordinates (Angstroms)
 Number     Number                        X           Y           Z
 ---------------------------------------------------------------------
      1          8                   -0.000000    0.065912    0.000000
      2          1                    0.757160   -0.523038    0.000000
      3          1                   -0.757160   -0.523038   -0.000000
 ---------------------------------------------------------------------

 Geometry of final state superposed to maximize overlap.
               New orientation in final state               
 ---------------------------------------------------------------------
 Center     Atomic                     Coordinates (Angstroms)
 Number     Number                        X           Y           Z
 ---------------------------------------------------------------------
      1          8                   -0.000000    0.065912   -0.000000
      2          1                    0.757160   -0.523038    0.000000
      3          1                   -0.757160   -0.523038   -0.000000
 ---------------------------------------------------------------------

     ==================================================
                 Duschinsky Transformation
     ==================================================

 NOTE: Default maximum number of excited modes for the final state
       exceeds the total number of vibrations of the system.  Correcting.

     ==================================================
              Calculations of Band Intensities
     ==================================================

 -- To: vibronic fundamental state --
    Spectrum progression:   92.84%

 -- To: single overtones --
    Spectrum progression:   99.60%

 -- To: combinations of  2 simultaneously excited modes --
    Spectrum progression:  100.00%

 -- To: combinations of  3 simultaneously excited modes --
    Spectrum progression:  100.00%

   ## NOW TREATING 2 SIMULATENOUSLY EXCITED MODES IN INITIAL STATE ##

   ## NOW TREATING 3 SIMULATENOUSLY EXCITED MODES IN INITIAL STATE ##
 End of treatment for the populated initial states.

 Final progression:  100.00%

     ==================================================
                 Information on Transitions
     ==================================================

 Energy of the 0-0 transition:  30482.1844 cm^(-1)

 NOTE: The energy (transition energy) refers to the relative energy,
       with respect to the 0-0 transition energy
       The intensity is the line intensity.
       DipStr is the dipole strength.

 Energy =      0.0000 cm^-1: |0> -> |0>
   -> Intensity = 0.1990E+08 (DipStr = 0.9284    )

 Energy =   1611.3657 cm^-1: |0> -> |1^2>
   -> Intensity = 0.1232E+07 (DipStr = 0.5456E-01)

     ==================================================
                       Final Spectrum
     ==================================================

 No band broadening applied (stick spectrum)
 NOTE: The total Boltzmann population is:     0.100000E+01

 Legend:
 -------
 1st col.: Energy (in cm^-1)
 2nd col.: Intensity at T=298.1K
 Intensity: Molar absorption coefficient (in dm^3.mol^-1.cm^-1)
 -----------------------------
    20482.1844    0.000000D+00
    20484.1844    0.000000D+00
    20486.1844    0.000000D+00
    20488.1844    0.000000D+00
    20490.1844    0.000000D+00
    20492.1844    0.000000D+00
    20494.1844    0.000000D+00
    20496.1844    0.000000D+00
    20498.1844    0.000000D+00
    20500.1844    0.000000D+00
    20502.1844    0.000000D+00
    20504.1844    0.000000D+00
    20506.1844    0.000000D+00
    20508.1844    0.000000D+00
    20510.1844    0.000000D+00
    20512.1844    0.000000D+00
    20514.1844    0.000000D+00
    20516.1844    0.000000D+00
    20518.1844    0.000000D+00
    20520.1844    0.000000D+00
    20522.1844    0.000000D+00
    20524.1844    0.000000D+00
    20526.1844    0.000000D+00
    20528.1844    0.000000D+00
    20530.1844    0.000000D+00
    20532.1844    0.000000D+00
    20534.1844    0.000000D+00
    20536.1844    0.000000D+00
    20538.1844    0.000000D+00
    20540.1844    0.000000D+00
    20542.1844    0.000000D+00
    20544.1844    0.000000D+00
    20546.1844    0.000000D+00
    20548.1844    0.000000D+00
    20550.1844    0.000000D+00
    20552.1844    0.000000D+00
    20554.1844    0.000000D+00
    20556.1844    0.000000D+00
    20558.1844    0.000000D+00
    20560.1844    0.000000D+00
    20562.1844    0.000000D+00
    20564.1844    0.000000D+00
    20566.1844    0.000000D+00
    20568.1844    0.000000D+00
    20570.1844    0.000000D+00
    20572.1844    0.000000D+00
    20574.1844    0.000000D+00
    20576.1844    0.000000D+00
    20578.1844    0.000000D+00
    20580.1844    0.000000D+00
    20582.1844    0.000000D+00
    20584.1844    0.000000D+00
    20586.1844    0.000000D+00
    20588.1844    0.000000D+00
    20590.1844    0.000000D+00
    20592.1844    0.000000D+00
    20594.1844    0.000000D+00
    20596.1844    0.000000D+00
    20598.1844    0.000000D+00
    20600.1844    0.000000D+00
    20602.1844    0.000000D+00
    20604.1844    0.000000D+00
    20606.1844    0.000000D+00
    20608.1844    0.000000D+00
    20610.1844    0.000000D+00
    20612.1844    0.000000D+00
    20614.1844    0.000000D+00
    20616.1844    0.000000D+00
    20618.1844    0.000000D+00
    20620.1844    0.000000D+00
    20622.1844    0.000000D+00
    20624.1844    0.000000D+00
    20626.1844    0.000000D+00
    20628.1844    0.000000D+00
    20630.1844    0.000000D+00
    20632.1844    0.000000D+00
    20634.1844    0.000000D+00
    20636.1844    0.000000D+00
    20638.1844    0.000000D+00
    20640.1844    0.000000D+00
    20642.1844    0.000000D+00
    20644.1844    0.000000D+00
    20646.1844    0.000000D+00
    20648.1844    0.000000D+00
    20650.1844    0.000000D+00
    20652.1844    0.000000D+00
    20654.1844    0.000000D+00
    20656.1844    0.000000D+00
    20658.1844    0.000000D+00
    20660.1844    0.000000D+00
    20662.1844    0.000000D+00
    20664.1844    0.000000D+00
    20666.1844    0.000000D+00
    20668.1844    0.000000D+00
    20670.1844    0.000000D+00
    20672.1844    0.000000D+00
    20674.1844    0.000000D+00
    20676.1844    0.000000D+00
    20678.1844    0.000000D+00
    20680.1844    0.000000D+00
    20682.1844    0.000000D+00
    20684.1844    0.000000D+00
    20686.1844    0.000000D+00
    20688.1844    0.000000D+00
    20690.1844    0.000000D+00
    20692.1844    0.000000D+00
    20694.1844    0.000000D+00
    20696.1844    0.000000D+00
    20698.1844    0.000000D+00
    20700.1844    0.000000D+00
    20702.1844    0.000000D+00
    20704.1844    0.000000D+00
    20706.1844    0.000000D+00
    20708.1844    0.000000D+00
    20710.1844    0.000000D+00
    20712.1844    0.000000D+00
    20714.1844    0.000000D+00
    20716.1844    0.000000D+00
    20718.1844    0.000000D+00
    20720.1844    0.000000D+00
    20722.1844    0.000000D+00
    20724.1844    0.000000D+00
    20726.1844    0.000000D+00
    20728.1844    0.000000D+00
    20730.1844    0.000000D+00
    20732.1844    0.000000D+00
    20734.1844    0.000000D+00
    20736.1844    0.000000D+00
    20738.1844    0.000000D+00
    20740.1844    0.000000D+00
    20742.1844    0.000000D+00
    20744.1844    0.000000D+00
    20746.1844    0.000000D+00
    20748.1844    0.000000D+00
    20750.1844    0.000000D+00
    20752.1844    0.000000D+00
    20754.1844    0.000000D+00
    20756.1844    0.000000D+00
    20758.1844    0.000000D+00
    20760.1844    0.000000D+00
    20762.1844    0.000000D+00
    20764.1844    0.000000D+00
    20766.1844    0.000000D+00
    20768.1844    0.000000D+00
    20770.1844    0.000000D+00
    20772.1844    0.000000D+00
    20774.1844    0.000000D+00
    20776.1844    0.000000D+00
    20778.1844    0.000000D+00
    20780.1844    0.000000D+00
    20782.1844    0.000000D+00
    20784.1844    0.000000D+00
    20786.1844    0.000000D+00
    20788.1844    0.000000D+00
    20790.1844    0.000000D+00
    20792.1844    0.000000D+00
    20794.1844    0.000000D+00
    20796.1844    0.000000D+00
    20798.1844    0.000000D+00
    20800.1844    0.000000D+00
    20802.1844    0.000000D+00
    20804.1844    0.000000D+00
    20806.1844    0.000000D+00
    20808.1844    0.000000D+00
    20810.1844    0.000000D+00
    20812.1844    0.000000D+00
    20814.1844    0.000000D+00
    20816.1844    0.000000D+00
    20818.1844    0.000000D+00
    20820.1844    0.000000D+00
    20822.1844    0.000000D+00
    20824.1844    0.000000D+00
    20826.1844    0.000000D+00
    20828.1844    0.000000D+00
    20830.1844    0.000000D+00
    20832.1844    0.000000D+00
    20834.1844    0.000000D+00
    20836.1844    0.000000D+00
    20838.1844    0.000000D+00
    20840.1844    0.000000D+00
    20842.1844    0.000000D+00
    20844.1844    0.000000D+00
    20846.1844    0.000000D+00
    20848.1844    0.000000D+00
    20850.1844    0.000000D+00
    20852.1844    0.000000D+00
    20854.1844    0.000000D+00
    20856.1844    0.000000D+00
    20858.1844    0.000000D+00
    20860.1844    0.000000D+00
    20862.1844    0.000000D+00
    20864.1844    0.000000D+00
    20866.1844    0.000000D+00
    20868.1844    0.000000D+00
    20870.1844    0.000000D+00
    20872.1844    0.000000D+00
    20874.1844    0.000000D+00
    20876.1844    0.000000D+00
    20878.1844    0.000000D+00
    20880.1844    0.000000D+00
    20882.1844    0.000000D+00
    20884.1844    0.000000D+00
    20886.1844    0.000000D+00
    20888.1844    0.000000D+00
    20890.1844    0.000000D+00
    20892.1844    0.000000D+00
    20894.1844    0.000000D+00
    20896.1844    0.000000D+00
    20898.1844    0.000000D+00
    20900.1844    0.000000D+00
    20902.1844    0.000000D+00
    20904.1844    0.000000D+00
    20906.1844    0.000000D+00
    20908.1844    0.000000D+00
    20910.1844    0.000000D+00
    20912.1844    0.000000D+00
    20914.1844    0.000000D+00
    20916.1844    0.000000D+00
    20918.1844    0.000000D+00
    20920.1844    0.000000D+00
    20922.1844    0.000000D+00
    20924.1844    0.000000D+00
    20926.1844    0.000000D+00
    20928.1844    0.000000D+00
    20930.1844    0.000000D+00
    20932.1844    0.000000D+00
    20934.1844    0.000000D+00
    20936.1844    0.000000D+00
    20938.1844    0.000000D+00
    20940.1844    0.000000D+00
    20942.1844    0.000000D+00
    20944.1844    0.000000D+00
    20946.1844    0.000000D+00
    20948.1844    0.000000D+00
    20950.1844    0.000000D+00
    20952.1844    0.000000D+00
    20954.1844    0.000000D+00
    20956.1844    0.000000D+00
    20958.1844    0.000000D+00
    20960.1844    0.000000D+00
    20962.1844    0.000000D+00
    20964.1844    0.000000D+00
    20966.1844    0.000000D+00
    20968.1844    0.000000D+00
    20970.1844    0.000000D+00
    20972.1844    0.000000D+00
    20974.1844    0.000000D+00
    20976.1844    0.000000D+00
    20978.1844    0.000000D+00
    20980.1844    0.000000D+00
    20982.1844    0.000000D+00
    20984.1844    0.000000D+00
    20986.1844    0.000000D+00
    20988.1844    0.000000D+00
    20990.1844    0.000000D+00
    20992.1844    0.000000D+00
    20994.1844    0.000000D+00
    20996.1844    0.000000D+00
    20998.1844    0.000000D+00
    21000.1844    0.000000D+00
    21002.1844    0.000000D+00
    21004.1844    0.000000D+00
    21006.1844    0.000000D+00
    21008.1844    0.000000D+00
    21010.1844    0.000000D+00
    21012.1844    0.000000D+00
    21014.1844    0.000000D+00
    21016.1844    0.000000D+00
    21018.1844    0.000000D+00
    21020.1844    0.000000D+00
    21022.1844    0.000000D+00
    21024.1844    0.000000D+00
    21026.1844    0.000000D+00
    21028.1844    0.000000D+00
    21030.1844    0.000000D+00
    21032.1844    0.000000D+00
    21034.1844    0.000000D+00
    21036.1844    0.000000D+00
    21038.1844    0.000000D+00
    21040.1844    0.000000D+00
    21042.1844    0.000000D+00
    21044.1844    0.000000D+00
    21046.1844    0.000000D+00
    21048.1844    0.000000D+00
    21050.1844    0.000000D+00
    21052.1844    0.000000D+00
    21054.1844    0.000000D+00
    21056.1844    0.000000D+00
    21058.1844    0.000000D+00
    21060.1844    0.000000D+00
    21062.1844    0.000000D+00
    21064.1844    0.000000D+00
    21066.1844    0.000000D+00
    21068.1844    0.000000D+00
    21070.1844    0.000000D+00
    21072.1844    0.000000D+00
    21074.1844    0.000000D+00
    21076.1844    0.000000D+00
    21078.1844    0.000000D+00
    21080.1844    0.000000D+00
    21082.1844    0.000000D+00
    21084.1844    0.000000D+00
    21086.1844    0.000000D+00
    21088.1844    0.000000D+00
    21090.1844    0.000000D+00
    21092.1844    0.000000D+00
    21094.1844    0.000000D+00
    21096.1844    0.000000D+00
    21098.1844    0.000000D+00
    21100.1844    0.000000D+00
    21102.1844    0.000000D+00
    21104.1844    0.000000D+00
    21106.1844    0.000000D+00
    21108.1844    0.000000D+00
    21110.1844    0.000000D+00
    21112.1844    0.000000D+00
    21114.1844    0.000000D+00
    21116.1844    0.000000D+00
    21118.1844    0.000000D+00
    21120.1844    0.000000D+00
    21122.1844    0.000000D+00
    21124.1844    0.000000D+00
    21126.1844    0.000000D+00
    21128.1844    0.000000D+00
    21130.1844    0.000000D+00
    21132.1844    0.000000D+00
    21134.1844    0.000000D+00
    21136.1844    0.000000D+00
    21138.1844    0.000000D+00
    21140.1844    0.000000D+00
    21142.1844    0.000000D+00
    21144.1844    0.000000D+00
    21146.1844    0.000000D+00
    21148.1844    0.000000D+00
    21150.1844    0.000000D+00
    21152.1844    0.000000D+00
    21154.1844    0.000000D+00
    21156.1844    0.000000D+00
    21158.1844    0.000000D+00
    21160.1844    0.000000D+00
    21162.1844    0.000000D+00
    21164.1844    0.000000D+00
    21166.1844    0.000000D+00
    21168.1844    0.000000D+00
    21170.1844    0.000000D+00
    21172.1844    0.000000D+00
    21174.1844    0.000000D+00
    21176.1844    0.000000D+00
    21178.1844    0.000000D+00
    21180.1844    0.000000D+00
    21182.1844    0.000000D+00
    21184.1844    0.000000D+00
    21186.1844    0.000000D+00
    21188.1844    0.000000D+00
    21190.1844    0.000000D+00
    21192.1844    0.000000D+00
    21194.1844    0.000000D+00
    21196.1844    0.000000D+00
    21198.1844    0.000000D+00
    21200.1844    0.000000D+00
    21202.1844    0.000000D+00
    21204.1844    0.000000D+00
    21206.1844    0.000000D+00
    21208.1844    0.000000D+00
    21210.1844    0.000000D+00
    21212.1844    0.000000D+00
    21214.1844    0.000000D+00
    21216.1844    0.000000D+00
    21218.1844    0.000000D+00
    21220.1844    0.000000D+00
    21222.1844    0.000000D+00
    21224.1844    0.000000D+00
    21226.1844    0.000000D+00
    21228.1844    0.000000D+00
    21230.1844    0.000000D+00
    21232.1844    0.000000D+00
    21234.1844    0.000000D+00
    21236.1844    0.000000D+00
    21238.1844    0.000000D+00
    21240.1844    0.000000D+00
    21242.1844    0.000000D+00
    21244.1844    0.000000D+00
    21246.1844    0.000000D+00
    21248.1844    0.000000D+00
    21250.1844    0.000000D+00
    21252.1844    0.000000D+00
    21254.1844    0.000000D+00
    21256.1844    0.000000D+00
    21258.1844    0.000000D+00
    21260.1844    0.000000D+00
    21262.1844    0.000000D+00
    21264.1844    0.000000D+00
    21266.1844    0.000000D+00
    21268.1844    0.000000D+00
    21270.1844    0.000000D+00
    21272.1844    0.000000D+00
    21274.1844    0.000000D+00
    21276.1844    0.000000D+00
    21278.1844    0.000000D+00
    21280.1844    0.000000D+00
    21282.1844    0.000000D+00
    21284.1844    0.000000D+00
    21286.1844    0.000000D+00
    21288.1844    0.000000D+00
    21290.1844    0.000000D+00
    21292.1844    0.000000D+00
    21294.1844    0.000000D+00
    21296.1844    0.000000D+00
    21298.1844    0.000000D+00
    21300.1844    0.000000D+00
    21302.1844    0.000000D+00
    21304.1844    0.000000D+00
    21306.1844    0.000000D+00
    21308.1844    0.000000D+00
    21310.1844    0.000000D+00
    21312.1844    0.000000D+00
    21314.1844    0.000000D+00
    21316.1844    0.000000D+00
    21318.1844    0.000000D+00
    21320.1844    0.000000D+00
    21322.1844    0.000000D+00
    21324.1844    0.000000D+00
    21326.1844    0.000000D+00
    21328.1844    0.000000D+00
    21330.1844    0.000000D+00
    21332.1844    0.000000D+00
    21334.1844    0.000000D+00
    21336.1844    0.000000D+00
    21338.1844    0.000000D+00
    21340.1844    0.000000D+00
    21342.1844    0.000000D+00
    21344.1844    0.000000D+00
    21346.1844    0.000000D+00
    21348.1844    0.000000D+00
    21350.1844    0.000000D+00
    21352.1844    0.000000D+00
    21354.1844    0.000000D+00
    21356.1844    0.000000D+00
    21358.1844    0.000000D+00
    21360.1844    0.000000D+00
    21362.1844    0.000000D+00
    21364.1844    0.000000D+00
    21366.1844    0.000000D+00
    21368.1844    0.000000D+00
    21370.1844    0.000000D+00
    21372.1844    0.000000D+00
    21374.1844    0.000000D+00
    21376.1844    0.000000D+00
    21378.1844    0.000000D+00
    21380.1844    0.000000D+00
    21382.1844    0.000000D+00
    21384.1844    0.000000D+00
    21386.1844    0.000000D+00
    21388.1844    0.000000D+00
    21390.1844    0.000000D+00
    21392.1844    0.000000D+00
    21394.1844    0.000000D+00
    21396.1844    0.000000D+00
    21398.1844    0.000000D+00
    21400.1844    0.000000D+00
    21402.1844    0.000000D+00
    21404.1844    0.000000D+00
    21406.1844    0.000000D+00
    21408.1844    0.000000D+00
    21410.1844    0.000000D+00
    21412.1844    0.000000D+00
    21414.1844    0.000000D+00
    21416.1844    0.000000D+00
    21418.1844    0.000000D+00
    21420.1844    0.000000D+00
    21422.1844    0.000000D+00
    21424.1844    0.000000D+00
    21426.1844    0.000000D+00
    21428.1844    0.000000D+00
    21430.1844    0.000000D+00
    21432.1844    0.000000D+00
    21434.1844    0.000000D+00
    21436.1844    0.000000D+00
    21438.1844    0.000000D+00
    21440.1844    0.000000D+00
    21442.1844    0.000000D+00
    21444.1844    0.000000D+00
    21446.1844    0.000000D+00
    21448.1844    0.000000D+00
    21450.1844    0.000000D+00
    21452.1844    0.000000D+00
    21454.1844    0.000000D+00
    21456.1844    0.000000D+00
    21458.1844    0.000000D+00
    21460.1844    0.000000D+00
    21462.1844    0.000000D+00
    21464.1844    0.000000D+00
    21466.1844    0.000000D+00
    21468.1844    0.000000D+00
    21470.1844    0.000000D+00
    21472.1844    0.000000D+00
    21474.1844    0.000000D+00
    21476.1844    0.000000D+00
    21478.1844    0.000000D+00
    21480.1844    0.000000D+00
    21482.1844    0.000000D+00
    21484.1844    0.000000D+00
    21486.1844    0.000000D+00
    21488.1844    0.000000D+00
    21490.1844    0.000000D+00
    21492.1844    0.000000D+00
    21494.1844    0.000000D+00
    21496.1844    0.000000D+00
    21498.1844    0.000000D+00
    21500.1844    0.000000D+00
    21502.1844    0.000000D+00
    21504.1844    0.000000D+00
    21506.1844    0.000000D+00
    21508.1844    0.000000D+00
    21510.1844    0.000000D+00
    21512.1844    0.000000D+00
    21514.1844    0.000000D+00
    21516.1844    0.000000D+00
    21518.1844    0.000000D+00
    21520.1844    0.000000D+00
    21522.1844    0.000000D+00
    21524.1844    0.000000D+00
    21526.1844    0.000000D+00
    21528.1844    0.000000D+00
    21530.1844    0.000000D+00
    21532.1844    0.000000D+00
    21534.1844    0.000000D+00
    21536.1844    0.000000D+00
    21538.1844    0.000000D+00
    21540.1844    0.000000D+00
    21542.1844    0.000000D+00
    21544.1844    0.000000D+00
    21546.1844    0.000000D+00
    21548.1844    0.000000D+00
    21550.1844    0.000000D+00
    21552.1844    0.000000D+00
    21554.1844    0.000000D+00
    21556.1844    0.000000D+00
    21558.1844    0.000000D+00
    21560.1844    0.000000D+00
    21562.1844    0.000000D+00
    21564.1844    0.000000D+00
    21566.1844    0.000000D+00
    21568.1844    0.000000D+00
    21570.1844    0.000000D+00
    21572.1844    0.000000D+00
    21574.1844    0.000000D+00
    21576.1844    0.000000D+00
    21578.1844    0.000000D+00
    21580.1844    0.000000D+00
    21582.1844    0.000000D+00
    21584.1844    0.000000D+00
    21586.1844    0.000000D+00
    21588.1844    0.000000D+00
    21590.1844    0.000000D+00
    21592.1844    0.000000D+00
    21594.1844    0.000000D+00
    21596.1844    0.000000D+00
    21598.1844    0.000000D+00
    21600.1844    0.000000D+00
    21602.1844    0.000000D+00
    21604.1844    0.000000D+00
    21606.1844    0.000000D+00
    21608.1844    0.000000D+00
    21610.1844    0.000000D+00
    21612.1844    0.000000D+00
    21614.1844    0.000000D+00
    21616.1844    0.000000D+00
    21618.1844    0.000000D+00
    21620.1844    0.000000D+00
    21622.1844    0.000000D+00
    21624.1844    0.000000D+00
    21626.1844    0.000000D+00
    21628.1844    0.000000D+00
    21630.1844    0.000000D+00
    21632.1844    0.000000D+00
    21634.1844    0.000000D+00
    21636.1844    0.000000D+00
    21638.1844    0.000000D+00
    21640.1844    0.000000D+00
    21642.1844    0.000000D+00
    21644.1844    0.000000D+00
    21646.1844    0.000000D+00
    21648.1844    0.000000D+00
    21650.1844    0.000000D+00
    21652.1844    0.000000D+00
    21654.1844    0.000000D+00
    21656.1844    0.000000D+00
    21658.1844    0.000000D+00
    21660.1844    0.000000D+00
    21662.1844    0.000000D+00
    21664.1844    0.000000D+00
    21666.1844    0.000000D+00
    21668.1844    0.000000D+00
    21670.1844    0.000000D+00
    21672.1844    0.000000D+00
    21674.1844    0.000000D+00
    21676.1844    0.000000D+00
    21678.1844    0.000000D+00
    21680.1844    0.000000D+00
    21682.1844    0.000000D+00
    21684.1844    0.000000D+00
    21686.1844    0.000000D+00
    21688.1844    0.000000D+00
    21690.1844    0.000000D+00
    21692.1844    0.000000D+00
    21694.1844    0.000000D+00
    21696.1844    0.000000D+00
    21698.1844    0.000000D+00
    21700.1844    0.000000D+00
    21702.1844    0.000000D+00
    21704.1844    0.000000D+00
    21706.1844    0.000000D+00
    21708.1844    0.000000D+00
    21710.1844    0.000000D+00
    21712.1844    0.000000D+00
    21714.1844    0.000000D+00
    21716.1844    0.000000D+00
    21718.1844    0.000000D+00
    21720.1844    0.000000D+00
    21722.1844    0.000000D+00
    21724.1844    0.000000D+00
    21726.1844    0.000000D+00
    21728.1844    0.000000D+00
    21730.1844    0.000000D+00
    21732.1844    0.000000D+00
    21734.1844    0.000000D+00
    21736.1844    0.000000D+00
    21738.1844    0.000000D+00
    21740.1844    0.000000D+00
    21742.1844    0.000000D+00
    21744.1844    0.000000D+00
    21746.1844    0.000000D+00
    21748.1844    0.000000D+00
    21750.1844    0.000000D+00
    21752.1844    0.000000D+00
    21754.1844    0.000000D+00
    21756.1844    0.000000D+00
    21758.1844    0.000000D+00
    21760.1844    0.000000D+00
    21762.1844    0.000000D+00
    21764.1844    0.000000D+00
    21766.1844    0.000000D+00
    21768.1844    0.000000D+00
    21770.1844    0.000000D+00
    21772.1844    0.000000D+00
    21774.1844    0.000000D+00
    21776.1844    0.000000D+00
    21778.1844    0.000000D+00
    21780.1844    0.000000D+00
    21782.1844    0.000000D+00
    21784.1844    0.000000D+00
    21786.1844    0.000000D+00
    21788.1844    0.000000D+00
    21790.1844    0.000000D+00
    21792.1844    0.000000D+00
    21794.1844    0.000000D+00
    21796.1844    0.000000D+00
    21798.1844    0.000000D+00
    21800.1844    0.000000D+00
    21802.1844    0.000000D+00
    21804.1844    0.000000D+00
    21806.1844    0.000000D+00
    21808.1844    0.000000D+00
    21810.1844    0.000000D+00
    21812.1844    0.000000D+00
    21814.1844    0.000000D+00
    21816.1844    0.000000D+00
    21818.1844    0.000000D+00
    21820.1844    0.000000D+00
    21822.1844    0.000000D+00
    21824.1844    0.000000D+00
    21826.1844    0.000000D+00
    21828.1844    0.000000D+00
    21830.1844    0.000000D+00
    21832.1844    0.000000D+00
    21834.1844    0.000000D+00
    21836.1844    0.000000D+00
    21838.1844    0.000000D+00
    21840.1844    0.000000D+00
    21842.1844    0.000000D+00
    21844.1844    0.000000D+00
    21846.1844    0.000000D+00
    21848.1844    0.000000D+00
    21850.1844    0.000000D+00
    21852.1844    0.000000D+00
    21854.1844    0.000000D+00
    21856.1844    0.000000D+00
    21858.1844    0.000000D+00
    21860.1844    0.000000D+00
    21862.1844    0.000000D+00
    21864.1844    0.000000D+00
    21866.1844    0.000000D+00
    21868.1844    0.000000D+00
    21870.1844    0.000000D+00
    21872.1844    0.000000D+00
    21874.1844    0.000000D+00
    21876.1844    0.000000D+00
    21878.1844    0.000000D+00
    21880.1844    0.000000D+00
    21882.1844    0.000000D+00
    21884.1844    0.000000D+00
    21886.1844    0.000000D+00
    21888.1844    0.000000D+00
    21890.1844    0.000000D+00
    21892.1844    0.000000D+00
    21894.1844    0.000000D+00
    21896.1844    0.000000D+00
    21898.1844    0.000000D+00
    21900.1844    0.000000D+00
    21902.1844    0.000000D+00
    21904.1844    0.000000D+00
    21906.1844    0.000000D+00
    21908.1844    0.000000D+00
    21910.1844    0.000000D+00
    21912.1844    0.000000D+00
    21914.1844    0.000000D+00
    21916.1844    0.000000D+00
    21918.1844    0.000000D+00
    21920.1844    0.000000D+00
    21922.1844    0.000000D+00
    21924.1844    0.000000D+00
    21926.1844    0.000000D+00
    21928.1844    0.000000D+00
    21930.1844    0.000000D+00
    21932.1844    0.000000D+00
    21934.1844    0.000000D+00
    21936.1844    0.000000D+00
    21938.1844    0.000000D+00
    21940.1844    0.000000D+00
    21942.1844    0.000000D+00
    21944.1844    0.000000D+00
    21946.1844    0.000000D+00
    21948.1844    0.000000D+00
    21950.1844    0.000000D+00
    21952.1844    0.000000D+00
    21954.1844    0.000000D+00
    21956.1844    0.000000D+00
    21958.1844    0.000000D+00
    21960.1844    0.000000D+00
    21962.1844    0.000000D+00
    21964.1844    0.000000D+00
    21966.1844    0.000000D+00
    21968.1844    0.000000D+00
    21970.1844    0.000000D+00
    21972.1844    0.000000D+00
    21974.1844    0.000000D+00
    21976.1844    0.000000D+00
    21978.1844    0.000000D+00
    21980.1844    0.000000D+00
    21982.1844    0.000000D+00
    21984.1844    0.000000D+00
    21986.1844    0.000000D+00
    21988.1844    0.000000D+00
    21990.1844    0.000000D+00
    21992.1844    0.000000D+00
    21994.1844    0.000000D+00
    21996.1844    0.000000D+00
    21998.1844    0.000000D+00
    22000.1844    0.000000D+00
    22002.1844    0.000000D+00
    22004.1844    0.000000D+00
    22006.1844    0.000000D+00
    22008.1844    0.000000D+00
    22010.1844    0.000000D+00
    22012.1844    0.000000D+00
    22014.1844    0.000000D+00
    22016.1844    0.000000D+00
    22018.1844    0.000000D+00
    22020.1844    0.000000D+00
    22022.1844    0.000000D+00
    22024.1844    0.000000D+00
    22026.1844    0.000000D+00
    22028.1844    0.000000D+00
    22030.1844    0.000000D+00
    22032.1844    0.000000D+00
    22034.1844    0.000000D+00
    22036.1844    0.000000D+00
    22038.1844    0.000000D+00
    22040.1844    0.000000D+00
    22042.1844    0.000000D+00
    22044.1844    0.000000D+00
    22046.1844    0.000000D+00
    22048.1844    0.000000D+00
    22050.1844    0.000000D+00
    22052.1844    0.000000D+00
    22054.1844    0.000000D+00
    22056.1844    0.000000D+00
    22058.1844    0.000000D+00
    22060.1844    0.000000D+00
    22062.1844    0.000000D+00
    22064.1844    0.000000D+00
    22066.1844    0.000000D+00
    22068.1844    0.000000D+00
    22070.1844    0.000000D+00
    22072.1844    0.000000D+00
    22074.1844    0.000000D+00
    22076.1844    0.000000D+00
    22078.1844    0.000000D+00
    22080.1844    0.000000D+00
    22082.1844    0.000000D+00
    22084.1844    0.000000D+00
    22086.1844    0.000000D+00
    22088.1844    0.000000D+00
    22090.1844    0.000000D+00
    22092.1844    0.000000D+00
    22094.1844    0.000000D+00
    22096.1844    0.000000D+00
    22098.1844    0.000000D+00
    22100.1844    0.000000D+00
    22102.1844    0.000000D+00
    22104.1844    0.000000D+00
    22106.1844    0.000000D+00
    22108.1844    0.000000D+00
    22110.1844    0.000000D+00
    22112.1844    0.000000D+00
    22114.1844    0.000000D+00
    22116.1844    0.000000D+00
    22118.1844    0.000000D+00
    22120.1844    0.000000D+00
    22122.1844    0.000000D+00
    22124.1844    0.000000D+00
    22126.1844    0.000000D+00
    22128.1844    0.000000D+00
    22130.1844    0.000000D+00
    22132.1844    0.000000D+00
    22134.1844    0.000000D+00
    22136.1844    0.000000D+00
    22138.1844    0.000000D+00
    22140.1844    0.000000D+00
    22142.1844    0.000000D+00
    22144.1844    0.000000D+00
    22146.1844    0.000000D+00
    22148.1844    0.000000D+00
    22150.1844    0.000000D+00
    22152.1844    0.000000D+00
    22154.1844    0.000000D+00
    22156.1844    0.000000D+00
    22158.1844    0.000000D+00
    22160.1844    0.000000D+00
    22162.1844    0.000000D+00
    22164.1844    0.000000D+00
    22166.1844    0.000000D+00
    22168.1844    0.000000D+00
    22170.1844    0.000000D+00
    22172.1844    0.000000D+00
    22174.1844    0.000000D+00
    22176.1844    0.000000D+00
    22178.1844    0.000000D+00
    22180.1844    0.000000D+00
    22182.1844    0.000000D+00
    22184.1844    0.000000D+00
    22186.1844    0.000000D+00
    22188.1844    0.000000D+00
    22190.1844    0.000000D+00
    22192.1844    0.000000D+00
    22194.1844    0.000000D+00
    22196.1844    0.000000D+00
    22198.1844    0.000000D+00
    22200.1844    0.000000D+00
    22202.1844    0.000000D+00
    22204.1844    0.000000D+00
    22206.1844    0.000000D+00
    22208.1844    0.000000D+00
    22210.1844    0.000000D+00
    22212.1844    0.000000D+00
    22214.1844    0.000000D+00
    22216.1844    0.000000D+00
    22218.1844    0.000000D+00
    22220.1844    0.000000D+00
    22222.1844    0.000000D+00
    22224.1844    0.000000D+00
    22226.1844    0.000000D+00
    22228.1844    0.000000D+00
    22230.1844    0.000000D+00
    22232.1844    0.000000D+00
    22234.1844    0.000000D+00
    22236.1844    0.000000D+00
    22238.1844    0.000000D+00
    22240.1844    0.000000D+00
    22242.1844    0.000000D+00
    22244.1844    0.000000D+00
    22246.1844    0.000000D+00
    22248.1844    0.000000D+00
    22250.1844    0.000000D+00
    22252.1844    0.000000D+00
    22254.1844    0.000000D+00
    22256.1844    0.000000D+00
    22258.1844    0.000000D+00
    22260.1844    0.000000D+00
    22262.1844    0.000000D+00
    22264.1844    0.000000D+00
    22266.1844    0.000000D+00
    22268.1844    0.000000D+00
    22270.1844    0.000000D+00
    22272.1844    0.000000D+00
    22274.1844    0.000000D+00
    22276.1844    0.000000D+00
    22278.1844    0.000000D+00
    22280.1844    0.000000D+00
    22282.1844    0.000000D+00
    22284.1844    0.000000D+00
    22286.1844    0.000000D+00
    22288.1844    0.000000D+00
    22290.1844    0.000000D+00
    22292.1844    0.000000D+00
    22294.1844    0.000000D+00
    22296.1844    0.000000D+00
    22298.1844    0.000000D+00
    22300.1844    0.000000D+00
    22302.1844    0.000000D+00
    22304.1844    0.000000D+00
    22306.1844    0.000000D+00
    22308.1844    0.000000D+00
    22310.1844    0.000000D+00
    22312.1844    0.000000D+00
    22314.1844    0.000000D+00
    22316.1844    0.000000D+00
    22318.1844    0.000000D+00
    22320.1844    0.000000D+00
    22322.1844    0.000000D+00
    22324.1844    0.000000D+00
    22326.1844    0.000000D+00
    22328.1844    0.000000D+00
    22330.1844    0.000000D+00
    22332.1844    0.000000D+00
    22334.1844    0.000000D+00
    22336.1844    0.000000D+00
    22338.1844    0.000000D+00
    22340.1844    0.000000D+00
    22342.1844    0.000000D+00
    22344.1844    0.000000D+00
    22346.1844    0.000000D+00
    22348.1844    0.000000D+00
    22350.1844    0.000000D+00
    22352.1844    0.000000D+00
    22354.1844    0.000000D+00
    22356.1844    0.000000D+00
    22358.1844    0.000000D+00
    22360.1844    0.000000D+00
    22362.1844    0.000000D+00
    22364.1844    0.000000D+00
    22366.1844    0.000000D+00
    22368.1844    0.000000D+00
    22370.1844    0.000000D+00
    22372.1844    0.000000D+00
    22374.1844    0.000000D+00
    22376.1844    0.000000D+00
    22378.1844    0.000000D+00
    22380.1844    0.000000D+00
    22382.1844    0.000000D+00
    22384.1844    0.000000D+00
    22386.1844    0.000000D+00
    22388.1844    0.000000D+00
    22390.1844    0.000000D+00
    22392.1844    0.000000D+00
    22394.1844    0.000000D+00
    22396.1844    0.000000D+00
    22398.1844    0.000000D+00
    22400.1844    0.000000D+00
    22402.1844    0.000000D+00
    22404.1844    0.000000D+00
    22406.1844    0.000000D+00
    22408.1844    0.000000D+00
    22410.1844    0.000000D+00
    22412.1844    0.000000D+00
    22414.1844    0.000000D+00
    22416.1844    0.000000D+00
    22418.1844    0.000000D+00
    22420.1844    0.000000D+00
    22422.1844    0.000000D+00
    22424.1844    0.000000D+00
    22426.1844    0.000000D+00
    22428.1844    0.000000D+00
    22430.1844    0.000000D+00
    22432.1844    0.000000D+00
    22434.1844    0.000000D+00
    22436.1844    0.000000D+00
    22438.1844    0.000000D+00
    22440.1844    0.000000D+00
    22442.1844    0.000000D+00
    22444.1844    0.000000D+00
    22446.1844    0.000000D+00
    22448.1844    0.000000D+00
    22450.1844    0.000000D+00
    22452.1844    0.000000D+00
    22454.1844    0.000000D+00
    22456.1844    0.000000D+00
    22458.1844    0.000000D+00
    22460.1844    0.000000D+00
    22462.1844    0.000000D+00
    22464.1844    0.000000D+00
    22466.1844    0.000000D+00
    22468.1844    0.000000D+00
    22470.1844    0.000000D+00
    22472.1844    0.000000D+00
    22474.1844    0.000000D+00
    22476.1844    0.000000D+00
    22478.1844    0.000000D+00
    22480.1844    0.000000D+00
    22482.1844    0.000000D+00
    22484.1844    0.000000D+00
    22486.1844    0.000000D+00
    22488.1844    0.000000D+00
    22490.1844    0.000000D+00
    22492.1844    0.000000D+00
    22494.1844    0.000000D+00
    22496.1844    0.000000D+00
    22498.1844    0.000000D+00
    22500.1844    0.000000D+00
    22502.1844    0.000000D+00
    22504.1844    0.000000D+00
    22506.1844    0.000000D+00
    22508.1844    0.000000D+00
    22510.1844    0.000000D+00
    22512.1844    0.000000D+00
    22514.1844    0.000000D+00
    22516.1844    0.000000D+00
    22518.1844    0.000000D+00
    22520.1844    0.000000D+00
    22522.1844    0.000000D+00
    22524.1844    0.000000D+00
    22526.1844    0.000000D+00
    22528.1844    0.000000D+00
    22530.1844    0.000000D+00
    22532.1844    0.000000D+00
    22534.1844    0.000000D+00
    22536.1844    0.000000D+00
    22538.1844    0.000000D+00
    22540.1844    0.000000D+00
    22542.1844    0.000000D+00
    22544.1844    0.000000D+00
    22546.1844    0.000000D+00
    22548.1844    0.000000D+00
    22550.1844    0.000000D+00
    22552.1844    0.000000D+00
    22554.1844    0.000000D+00
    22556.1844    0.000000D+00
    22558.1844    0.000000D+00
    22560.1844    0.000000D+00
    22562.1844    0.000000D+00
    22564.1844    0.000000D+00
    22566.1844    0.000000D+00
    22568.1844    0.000000D+00
    22570.1844    0.000000D+00
    22572.1844    0.000000D+00
    22574.1844    0.000000D+00
    22576.1844    0.000000D+00
    22578.1844    0.000000D+00
    22580.1844    0.000000D+00
    22582.1844    0.000000D+00
    22584.1844    0.000000D+00
    22586.1844    0.000000D+00
    22588.1844    0.000000D+00
    22590.1844    0.000000D+00
    22592.1844    0.000000D+00
    22594.1844    0.000000D+00
    22596.1844    0.000000D+00
    22598.1844    0.000000D+00
    22600.1844    0.000000D+00
    22602.1844    0.000000D+00
    22604.1844    0.000000D+00
    22606.1844    0.000000D+00
    22608.1844    0.000000D+00
    22610.1844    0.000000D+00
    22612.1844    0.000000D+00
    22614.1844    0.000000D+00
    22616.1844    0.000000D+00
    22618.1844    0.000000D+00
    22620.1844    0.000000D+00
    22622.1844    0.000000D+00
    22624.1844    0.000000D+00
    22626.1844    0.000000D+00
    22628.1844    0.000000D+00
    22630.1844    0.000000D+00
    22632.1844    0.000000D+00
    22634.1844    0.000000D+00
    22636.1844    0.000000D+00
    22638.1844    0.000000D+00
    22640.1844    0.000000D+00
    22642.1844    0.000000D+00
    22644.1844    0.000000D+00
    22646.1844    0.000000D+00
    22648.1844    0.000000D+00
    22650.1844    0.000000D+00
    22652.1844    0.000000D+00
    22654.1844    0.000000D+00
    22656.1844    0.000000D+00
    22658.1844    0.000000D+00
    22660.1844    0.000000D+00
    22662.1844    0.000000D+00
    22664.1844    0.000000D+00
    22666.1844    0.000000D+00
    22668.1844    0.000000D+00
    22670.1844    0.000000D+00
    22672.1844    0.000000D+00
    22674.1844    0.000000D+00
    22676.1844    0.000000D+00
    22678.1844    0.000000D+00
    22680.1844    0.000000D+00
    22682.1844    0.000000D+00
    22684.1844    0.000000D+00
    22686.1844    0.000000D+00
    22688.1844    0.000000D+00
    22690.1844    0.000000D+00
    22692.1844    0.000000D+00
    22694.1844    0.000000D+00
    22696.1844    0.000000D+00
    22698.1844    0.000000D+00
    22700.1844    0.000000D+00
    22702.1844    0.000000D+00
    22704.1844    0.000000D+00
    22706.1844    0.000000D+00
    22708.1844    0.000000D+00
    22710.1844    0.000000D+00
    22712.1844    0.000000D+00
    22714.1844    0.000000D+00
    22716.1844    0.000000D+00
    22718.1844    0.000000D+00
    22720.1844    0.000000D+00
    22722.1844    0.000000D+00
    22724.1844    0.000000D+00
    22726.1844    0.000000D+00
    22728.1844    0.000000D+00
    22730.1844    0.000000D+00
    22732.1844    0.000000D+00
    22734.1844    0.000000D+00
    22736.1844    0.000000D+00
    22738.1844    0.000000D+00
    22740.1844    0.000000D+00
    22742.1844    0.000000D+00
    22744.1844    0.000000D+00
    22746.1844    0.000000D+00
    22748.1844    0.000000D+00
    22750.1844    0.000000D+00
    22752.1844    0.000000D+00
    22754.1844    0.000000D+00
    22756.1844    0.000000D+00
    22758.1844    0.000000D+00
    22760.1844    0.000000D+00
    22762.1844    0.000000D+00
    22764.1844    0.000000D+00
    22766.1844    0.000000D+00
    22768.1844    0.000000D+00
    22770.1844    0.000000D+00
    22772.1844    0.000000D+00
    22774.1844    0.000000D+00
    22776.1844    0.000000D+00
    22778.1844    0.000000D+00
    22780.1844    0.000000D+00
    22782.1844    0.000000D+00
    22784.1844    0.000000D+00
    22786.1844    0.000000D+00
    22788.1844    0.000000D+00
    22790.1844    0.000000D+00
    22792.1844    0.000000D+00
    22794.1844    0.000000D+00
    22796.1844    0.000000D+00
    22798.1844    0.000000D+00
    22800.1844    0.000000D+00
    22802.1844    0.000000D+00
    22804.1844    0.000000D+00
    22806.1844    0.000000D+00
    22808.1844    0.000000D+00
    22810.1844    0.000000D+00
    22812.1844    0.000000D+00
    22814.1844    0.000000D+00
    22816.1844    0.000000D+00
    22818.1844    0.000000D+00
    22820.1844    0.000000D+00
    22822.1844    0.000000D+00
    22824.1844    0.000000D+00
    22826.1844    0.000000D+00
    22828.1844    0.000000D+00
    22830.1844    0.000000D+00
    22832.1844    0.000000D+00
    22834.1844    0.000000D+00
    22836.1844    0.000000D+00
    22838.1844    0.000000D+00
    22840.1844    0.000000D+00
    22842.1844    0.000000D+00
    22844.1844    0.000000D+00
    22846.1844    0.000000D+00
    22848.1844    0.000000D+00
    22850.1844    0.000000D+00
    22852.1844    0.000000D+00
    22854.1844    0.000000D+00
    22856.1844    0.000000D+00
    22858.1844    0.000000D+00
    22860.1844    0.000000D+00
    22862.1844    0.000000D+00
    22864.1844    0.000000D+00
    22866.1844    0.000000D+00
    22868.1844    0.000000D+00
    22870.1844    0.000000D+00
    22872.1844    0.000000D+00
    22874.1844    0.000000D+00
    22876.1844    0.000000D+00
    22878.1844    0.000000D+00
    22880.1844    0.000000D+00
    22882.1844    0.000000D+00
    22884.1844    0.000000D+00
    22886.1844    0.000000D+00
    22888.1844    0.000000D+00
    22890.1844    0.000000D+00
    22892.1844    0.000000D+00
    22894.1844    0.000000D+00
    22896.1844    0.000000D+00
    22898.1844    0.000000D+00
    22900.1844    0.000000D+00
    22902.1844    0.000000D+00
    22904.1844    0.000000D+00
    22906.1844    0.000000D+00
    22908.1844    0.000000D+00
    22910.1844    0.000000D+00
    22912.1844    0.000000D+00
    22914.1844    0.000000D+00
    22916.1844    0.000000D+00
    22918.1844    0.000000D+00
    22920.1844    0.000000D+00
    22922.1844    0.000000D+00
    22924.1844    0.000000D+00
    22926.1844    0.000000D+00
    22928.1844    0.000000D+00
    22930.1844    0.000000D+00
    22932.1844    0.000000D+00
    22934.1844    0.000000D+00
    22936.1844    0.000000D+00
    22938.1844    0.000000D+00
    22940.1844    0.000000D+00
    22942.1844    0.000000D+00
    22944.1844    0.000000D+00
    22946.1844    0.000000D+00
    22948.1844    0.000000D+00
    22950.1844    0.000000D+00
    22952.1844    0.000000D+00
    22954.1844    0.000000D+00
    22956.1844    0.000000D+00
    22958.1844    0.000000D+00
    22960.1844    0.000000D+00
    22962.1844    0.000000D+00
    22964.1844    0.000000D+00
    22966.1844    0.000000D+00
    22968.1844    0.000000D+00
    22970.1844    0.000000D+00
    22972.1844    0.000000D+00
    22974.1844    0.000000D+00
    22976.1844    0.000000D+00
    22978.1844    0.000000D+00
    22980.1844    0.000000D+00
    22982.1844    0.000000D+00
    22984.1844    0.000000D+00
    22986.1844    0.000000D+00
    22988.1844    0.000000D+00
    22990.1844    0.000000D+00
    22992.1844    0.000000D+00
    22994.1844    0.000000D+00
    22996.1844    0.000000D+00
    22998.1844    0.000000D+00
    23000.1844    0.000000D+00
    23002.1844    0.000000D+00
    23004.1844    0.000000D+00
    23006.1844    0.000000D+00
    23008.1844    0.000000D+00
    23010.1844    0.000000D+00
    23012.1844    0.000000D+00
    23014.1844    0.000000D+00
    23016.1844    0.000000D+00
    23018.1844    0.000000D+00
    23020.1844    0.000000D+00
    23022.1844    0.000000D+00
    23024.1844    0.000000D+00
    23026.1844    0.000000D+00
    23028.1844    0.000000D+00
    23030.1844    0.000000D+00
    23032.1844    0.000000D+00
    23034.1844    0.000000D+00
    23036.1844    0.000000D+00
    23038.1844    0.000000D+00
    23040.1844    0.000000D+00
    23042.1844    0.000000D+00
    23044.1844    0.000000D+00
    23046.1844    0.000000D+00
    23048.1844    0.000000D+00
    23050.1844    0.000000D+00
    23052.1844    0.000000D+00
    23054.1844    0.000000D+00
    23056.1844    0.000000D+00
    23058.1844    0.000000D+00
    23060.1844    0.000000D+00
    23062.1844    0.000000D+00
    23064.1844    0.000000D+00
    23066.1844    0.000000D+00
    23068.1844    0.000000D+00
    23070.1844    0.000000D+00
    23072.1844    0.000000D+00
    23074.1844    0.000000D+00
    23076.1844    0.000000D+00
    23078.1844    0.000000D+00
    23080.1844    0.000000D+00
    23082.1844    0.000000D+00
    23084.1844    0.000000D+00
    23086.1844    0.000000D+00
    23088.1844    0.000000D+00
    23090.1844    0.000000D+00
    23092.1844    0.000000D+00
    23094.1844    0.000000D+00
    23096.1844    0.000000D+00
    23098.1844    0.000000D+00
    23100.1844    0.000000D+00
    23102.1844    0.000000D+00
    23104.1844    0.000000D+00
    23106.1844    0.000000D+00
    23108.1844    0.000000D+00
    23110.1844    0.000000D+00
    23112.1844    0.000000D+00
    23114.1844    0.000000D+00
    23116.1844    0.000000D+00
    23118.1844    0.000000D+00
    23120.1844    0.000000D+00
    23122.1844    0.000000D+00
    23124.1844    0.000000D+00
    23126.1844    0.000000D+00
    23128.1844    0.000000D+00
    23130.1844    0.000000D+00
    23132.1844    0.000000D+00
    23134.1844    0.000000D+00
    23136.1844    0.000000D+00
    23138.1844    0.000000D+00
    23140.1844    0.000000D+00
    23142.1844    0.000000D+00
    23144.1844    0.000000D+00
    23146.1844    0.000000D+00
    23148.1844    0.000000D+00
    23150.1844    0.000000D+00
    23152.1844    0.000000D+00
    23154.1844    0.000000D+00
    23156.1844    0.000000D+00
    23158.1844    0.000000D+00
    23160.1844    0.000000D+00
    23162.1844    0.000000D+00
    23164.1844    0.000000D+00
    23166.1844    0.000000D+00
    23168.1844    0.000000D+00
    23170.1844    0.000000D+00
    23172.1844    0.000000D+00
    23174.1844    0.000000D+00
    23176.1844    0.000000D+00
    23178.1844    0.000000D+00
    23180.1844    0.000000D+00
    23182.1844    0.000000D+00
    23184.1844    0.000000D+00
    23186.1844    0.000000D+00
    23188.1844    0.000000D+00
    23190.1844    0.000000D+00
    23192.1844    0.000000D+00
    23194.1844    0.000000D+00
    23196.1844    0.000000D+00
    23198.1844    0.000000D+00
    23200.1844    0.000000D+00
    23202.1844    0.000000D+00
    23204.1844    0.000000D+00
    23206.1844    0.000000D+00
    23208.1844    0.000000D+00
    23210.1844    0.000000D+00
    23212.1844    0.000000D+00
    23214.1844    0.000000D+00
    23216.1844    0.000000D+00
    23218.1844    0.000000D+00
    23220.1844    0.000000D+00
    23222.1844    0.000000D+00
    23224.1844    0.000000D+00
    23226.1844    0.000000D+00
    23228.1844    0.000000D+00
    23230.1844    0.000000D+00
    23232.1844    0.000000D+00
    23234.1844    0.000000D+00
    23236.1844    0.000000D+00
    23238.1844    0.000000D+00
    23240.1844    0.000000D+00
    23242.1844    0.000000D+00
    23244.1844    0.000000D+00
    23246.1844    0.000000D+00
    23248.1844    0.000000D+00
    23250.1844    0.000000D+00
    23252.1844    0.000000D+00
    23254.1844    0.000000D+00
    23256.1844    0.000000D+00
    23258.1844    0.000000D+00
    23260.1844    0.000000D+00
    23262.1844    0.000000D+00
    23264.1844    0.000000D+00
    23266.1844    0.000000D+00
    23268.1844    0.000000D+00
    23270.1844    0.000000D+00
    23272.1844    0.000000D+00
    23274.1844    0.000000D+00
    23276.1844    0.000000D+00
    23278.1844    0.000000D+00
    23280.1844    0.000000D+00
    23282.1844    0.000000D+00
    23284.1844    0.000000D+00
    23286.1844    0.000000D+00
    23288.1844    0.000000D+00
    23290.1844    0.000000D+00
    23292.1844    0.000000D+00
    23294.1844    0.000000D+00
    23296.1844    0.000000D+00
    23298.1844    0.000000D+00
    23300.1844    0.000000D+00
    23302.1844    0.000000D+00
    23304.1844    0.000000D+00
    23306.1844    0.000000D+00
    23308.1844    0.000000D+00
    23310.1844    0.000000D+00
    23312.1844    0.000000D+00
    23314.1844    0.000000D+00
    23316.1844    0.000000D+00
    23318.1844    0.000000D+00
    23320.1844    0.000000D+00
    23322.1844    0.000000D+00
    23324.1844    0.000000D+00
    23326.1844    0.000000D+00
    23328.1844    0.000000D+00
    23330.1844    0.000000D+00
    23332.1844    0.000000D+00
    23334.1844    0.000000D+00
    23336.1844    0.000000D+00
    23338.1844    0.000000D+00
    23340.1844    0.000000D+00
    23342.1844    0.000000D+00
    23344.1844    0.000000D+00
    23346.1844    0.000000D+00
    23348.1844    0.000000D+00
    23350.1844    0.000000D+00
    23352.1844    0.000000D+00
    23354.1844    0.000000D+00
    23356.1844    0.000000D+00
    23358.1844    0.000000D+00
    23360.1844    0.000000D+00
    23362.1844    0.000000D+00
    23364.1844    0.000000D+00
    23366.1844    0.000000D+00
    23368.1844    0.000000D+00
    23370.1844    0.000000D+00
    23372.1844    0.000000D+00
    23374.1844    0.000000D+00
    23376.1844    0.000000D+00
    23378.1844    0.000000D+00
    23380.1844    0.000000D+00
    23382.1844    0.000000D+00
    23384.1844    0.000000D+00
    23386.1844    0.000000D+00
    23388.1844    0.000000D+00
    23390.1844    0.000000D+00
    23392.1844    0.000000D+00
    23394.1844    0.000000D+00
    23396.1844    0.000000D+00
    23398.1844    0.000000D+00
    23400.1844    0.000000D+00
    23402.1844    0.000000D+00
    23404.1844    0.000000D+00
    23406.1844    0.000000D+00
    23408.1844    0.000000D+00
    23410.1844    0.000000D+00
    23412.1844    0.000000D+00
    23414.1844    0.000000D+00
    23416.1844    0.000000D+00
    23418.1844    0.000000D+00
    23420.1844    0.000000D+00
    23422.1844    0.000000D+00
    23424.1844    0.000000D+00
    23426.1844    0.000000D+00
    23428.1844    0.000000D+00
    23430.1844    0.000000D+00
    23432.1844    0.000000D+00
    23434.1844    0.000000D+00
    23436.1844    0.000000D+00
    23438.1844    0.000000D+00
    23440.1844    0.000000D+00
    23442.1844    0.000000D+00
    23444.1844    0.000000D+00
    23446.1844    0.000000D+00
    23448.1844    0.000000D+00
    23450.1844    0.000000D+00
    23452.1844    0.000000D+00
    23454.1844    0.000000D+00
    23456.1844    0.000000D+00
    23458.1844    0.000000D+00
    23460.1844    0.000000D+00
    23462.1844    0.000000D+00
    23464.1844    0.000000D+00
    23466.1844    0.000000D+00
    23468.1844    0.000000D+00
    23470.1844    0.000000D+00
    23472.1844    0.000000D+00
    23474.1844    0.000000D+00
    23476.1844    0.000000D+00
    23478.1844    0.000000D+00
    23480.1844    0.000000D+00
    23482.1844    0.000000D+00
    23484.1844    0.000000D+00
    23486.1844    0.000000D+00
    23488.1844    0.000000D+00
    23490.1844    0.000000D+00
    23492.1844    0.000000D+00
    23494.1844    0.000000D+00
    23496.1844    0.000000D+00
    23498.1844    0.000000D+00
    23500.1844    0.000000D+00
    23502.1844    0.000000D+00
    23504.1844    0.000000D+00
    23506.1844    0.000000D+00
    23508.1844    0.000000D+00
    23510.1844    0.000000D+00
    23512.1844    0.000000D+00
    23514.1844    0.000000D+00
    23516.1844    0.000000D+00
    23518.1844    0.000000D+00
    23520.1844    0.000000D+00
    23522.1844    0.000000D+00
    23524.1844    0.000000D+00
    23526.1844    0.000000D+00
    23528.1844    0.000000D+00
    23530.1844    0.000000D+00
    23532.1844    0.000000D+00
    23534.1844    0.000000D+00
    23536.1844    0.000000D+00
    23538.1844    0.000000D+00
    23540.1844    0.000000D+00
    23542.1844    0.000000D+00
    23544.1844    0.000000D+00
    23546.1844    0.000000D+00
    23548.1844    0.000000D+00
    23550.1844    0.000000D+00
    23552.1844    0.000000D+00
    23554.1844    0.000000D+00
    23556.1844    0.000000D+00
    23558.1844    0.000000D+00
    23560.1844    0.000000D+00
    23562.1844    0.000000D+00
    23564.1844    0.000000D+00
    23566.1844    0.000000D+00
    23568.1844    0.000000D+00
    23570.1844    0.000000D+00
    23572.1844    0.000000D+00
    23574.1844    0.000000D+00
    23576.1844    0.000000D+00
    23578.1844    0.000000D+00
    23580.1844    0.000000D+00
    23582.1844    0.000000D+00
    23584.1844    0.000000D+00
    23586.1844    0.000000D+00
    23588.1844    0.000000D+00
    23590.1844    0.000000D+00
    23592.1844    0.000000D+00
    23594.1844    0.000000D+00
    23596.1844    0.000000D+00
    23598.1844    0.000000D+00
    23600.1844    0.000000D+00
    23602.1844    0.000000D+00
    23604.1844    0.000000D+00
    23606.1844    0.000000D+00
    23608.1844    0.000000D+00
    23610.1844    0.000000D+00
    23612.1844    0.000000D+00
    23614.1844    0.000000D+00
    23616.1844    0.000000D+00
    23618.1844    0.000000D+00
    23620.1844    0.000000D+00
    23622.1844    0.000000D+00
    23624.1844    0.000000D+00
    23626.1844    0.000000D+00
    23628.1844    0.000000D+00
    23630.1844    0.000000D+00
    23632.1844    0.000000D+00
    23634.1844    0.000000D+00
    23636.1844    0.000000D+00
    23638.1844    0.000000D+00
    23640.1844    0.000000D+00
    23642.1844    0.000000D+00
    23644.1844    0.000000D+00
    23646.1844    0.000000D+00
    23648.1844    0.000000D+00
    23650.1844    0.000000D+00
    23652.1844    0.000000D+00
    23654.1844    0.000000D+00
    23656.1844    0.000000D+00
    23658.1844    0.000000D+00
    23660.1844    0.000000D+00
    23662.1844    0.000000D+00
    23664.1844    0.000000D+00
    23666.1844    0.000000D+00
    23668.1844    0.000000D+00
    23670.1844    0.000000D+00
    23672.1844    0.000000D+00
    23674.1844    0.000000D+00
    23676.1844    0.000000D+00
    23678.1844    0.000000D+00
    23680.1844    0.000000D+00
    23682.1844    0.000000D+00
    23684.1844    0.000000D+00
    23686.1844    0.000000D+00
    23688.1844    0.000000D+00
    23690.1844    0.000000D+00
    23692.1844    0.000000D+00
    23694.1844    0.000000D+00
    23696.1844    0.000000D+00
    23698.1844    0.000000D+00
    23700.1844    0.000000D+00
    23702.1844    0.000000D+00
    23704.1844    0.000000D+00
    23706.1844    0.000000D+00
    23708.1844    0.000000D+00
    23710.1844    0.000000D+00
    23712.1844    0.000000D+00
    23714.1844    0.000000D+00
    23716.1844    0.000000D+00
    23718.1844    0.000000D+00
    23720.1844    0.000000D+00
    23722.1844    0.000000D+00
    23724.1844    0.000000D+00
    23726.1844    0.000000D+00
    23728.1844    0.000000D+00
    23730.1844    0.000000D+00
    23732.1844    0.000000D+00
    23734.1844    0.000000D+00
    23736.1844    0.000000D+00
    23738.1844    0.000000D+00
    23740.1844    0.000000D+00
    23742.1844    0.000000D+00
    23744.1844    0.000000D+00
    23746.1844    0.000000D+00
    23748.1844    0.000000D+00
    23750.1844    0.000000D+00
    23752.1844    0.000000D+00
    23754.1844    0.000000D+00
    23756.1844    0.000000D+00
    23758.1844    0.000000D+00
    23760.1844    0.000000D+00
    23762.1844    0.000000D+00
    23764.1844    0.000000D+00
    23766.1844    0.000000D+00
    23768.1844    0.000000D+00
    23770.1844    0.000000D+00
    23772.1844    0.000000D+00
    23774.1844    0.000000D+00
    23776.1844    0.000000D+00
    23778.1844    0.000000D+00
    23780.1844    0.000000D+00
    23782.1844    0.000000D+00
    23784.1844    0.000000D+00
    23786.1844    0.000000D+00
    23788.1844    0.000000D+00
    23790.1844    0.000000D+00
    23792.1844    0.000000D+00
    23794.1844    0.000000D+00
    23796.1844    0.000000D+00
    23798.1844    0.000000D+00
    23800.1844    0.000000D+00
    23802.1844    0.000000D+00
    23804.1844    0.000000D+00
    23806.1844    0.000000D+00
    23808.1844    0.000000D+00
    23810.1844    0.000000D+00
    23812.1844    0.000000D+00
    23814.1844    0.000000D+00
    23816.1844    0.000000D+00
    23818.1844    0.000000D+00
    23820.1844    0.000000D+00
    23822.1844    0.000000D+00
    23824.1844    0.000000D+00
    23826.1844    0.000000D+00
    23828.1844    0.000000D+00
    23830.1844    0.000000D+00
    23832.1844    0.000000D+00
    23834.1844    0.000000D+00
    23836.1844    0.000000D+00
    23838.1844    0.000000D+00
    23840.1844    0.000000D+00
    23842.1844    0.000000D+00
    23844.1844    0.000000D+00
    23846.1844    0.000000D+00
    23848.1844    0.000000D+00
    23850.1844    0.000000D+00
    23852.1844    0.000000D+00
    23854.1844    0.000000D+00
    23856.1844    0.000000D+00
    23858.1844    0.000000D+00
    23860.1844    0.000000D+00
    23862.1844    0.000000D+00
    23864.1844    0.000000D+00
    23866.1844    0.000000D+00
    23868.1844    0.000000D+00
    23870.1844    0.000000D+00
    23872.1844    0.000000D+00
    23874.1844    0.000000D+00
    23876.1844    0.000000D+00
    23878.1844    0.000000D+00
    23880.1844    0.000000D+00
    23882.1844    0.000000D+00
    23884.1844    0.000000D+00
    23886.1844    0.000000D+00
    23888.1844    0.000000D+00
    23890.1844    0.000000D+00
    23892.1844    0.000000D+00
    23894.1844    0.000000D+00
    23896.1844    0.000000D+00
    23898.1844    0.000000D+00
    23900.1844    0.000000D+00
    23902.1844    0.000000D+00
    23904.1844    0.000000D+00
    23906.1844    0.000000D+00
    23908.1844    0.000000D+00
    23910.1844    0.000000D+00
    23912.1844    0.000000D+00
    23914.1844    0.000000D+00
    23916.1844    0.000000D+00
    23918.1844    0.000000D+00
    23920.1844    0.000000D+00
    23922.1844    0.000000D+00
    23924.1844    0.000000D+00
    23926.1844    0.000000D+00
    23928.1844    0.000000D+00
    23930.1844    0.000000D+00
    23932.1844    0.000000D+00
    23934.1844    0.000000D+00
    23936.1844    0.000000D+00
    23938.1844    0.000000D+00
    23940.1844    0.000000D+00
    23942.1844    0.000000D+00
    23944.1844    0.000000D+00
    23946.1844    0.000000D+00
    23948.1844    0.000000D+00
    23950.1844    0.000000D+00
    23952.1844    0.000000D+00
    23954.1844    0.000000D+00
    23956.1844    0.000000D+00
    23958.1844    0.000000D+00
    23960.1844    0.000000D+00
    23962.1844    0.000000D+00
    23964.1844    0.000000D+00
    23966.1844    0.000000D+00
    23968.1844    0.000000D+00
    23970.1844    0.000000D+00
    23972.1844    0.000000D+00
    23974.1844    0.000000D+00
    23976.1844    0.000000D+00
    23978.1844    0.000000D+00
    23980.1844    0.000000D+00
    23982.1844    0.000000D+00
    23984.1844    0.000000D+00
    23986.1844    0.000000D+00
    23988.1844    0.000000D+00
    23990.1844    0.000000D+00
    23992.1844    0.000000D+00
    23994.1844    0.000000D+00
    23996.1844    0.000000D+00
    23998.1844    0.000000D+00
    24000.1844    0.000000D+00
    24002.1844    0.000000D+00
    24004.1844    0.000000D+00
    24006.1844    0.000000D+00
    24008.1844    0.000000D+00
    24010.1844    0.000000D+00
    24012.1844    0.000000D+00
    24014.1844    0.000000D+00
    24016.1844    0.000000D+00
    24018.1844    0.000000D+00
    24020.1844    0.000000D+00
    24022.1844    0.000000D+00
    24024.1844    0.000000D+00
    24026.1844    0.000000D+00
    24028.1844    0.000000D+00
    24030.1844    0.000000D+00
    24032.1844    0.000000D+00
    24034.1844    0.000000D+00
    24036.1844    0.000000D+00
    24038.1844    0.000000D+00
    24040.1844    0.000000D+00
    24042.1844    0.000000D+00
    24044.1844    0.000000D+00
    24046.1844    0.000000D+00
    24048.1844    0.000000D+00
    24050.1844    0.000000D+00
    24052.1844    0.000000D+00
    24054.1844    0.000000D+00
    24056.1844    0.000000D+00
    24058.1844    0.000000D+00
    24060.1844    0.000000D+00
    24062.1844    0.000000D+00
    24064.1844    0.000000D+00
    24066.1844    0.000000D+00
    24068.1844    0.000000D+00
    24070.1844    0.000000D+00
    24072.1844    0.000000D+00
    24074.1844    0.000000D+00
    24076.1844    0.000000D+00
    24078.1844    0.000000D+00
    24080.1844    0.000000D+00
    24082.1844    0.000000D+00
    24084.1844    0.000000D+00
    24086.1844    0.000000D+00
    24088.1844    0.000000D+00
    24090.1844    0.000000D+00
    24092.1844    0.000000D+00
    24094.1844    0.000000D+00
    24096.1844    0.000000D+00
    24098.1844    0.000000D+00
    24100.1844    0.000000D+00
    24102.1844    0.000000D+00
    24104.1844    0.000000D+00
    24106.1844    0.000000D+00
    24108.1844    0.000000D+00
    24110.1844    0.000000D+00
    24112.1844    0.000000D+00
    24114.1844    0.000000D+00
    24116.1844    0.000000D+00
    24118.1844    0.000000D+00
    24120.1844    0.000000D+00
    24122.1844    0.000000D+00
    24124.1844    0.000000D+00
    24126.1844    0.000000D+00
    24128.1844    0.000000D+00
    24130.1844    0.000000D+00
    24132.1844    0.000000D+00
    24134.1844    0.000000D+00
    24136.1844    0.000000D+00
    24138.1844    0.000000D+00
    24140.1844    0.000000D+00
    24142.1844    0.000000D+00
    24144.1844    0.000000D+00
    24146.1844    0.000000D+00
    24148.1844    0.000000D+00
    24150.1844    0.000000D+00
    24152.1844    0.000000D+00
[...]
    69408.1844    0.000000D+00
    69410.1844    0.000000D+00
    69412.1844    0.000000D+00
    69414.1844    0.000000D+00
    69416.1844    0.000000D+00
    69418.1844    0.000000D+00
    69420.1844    0.000000D+00
    69422.1844    0.000000D+00
    69424.1844    0.000000D+00
    69426.1844    0.212646D-34
    69428.1844    0.000000D+00
    69430.1844    0.000000D+00
    69432.1844    0.000000D+00
    69434.1844    0.000000D+00
    69436.1844    0.000000D+00
    69438.1844    0.000000D+00
    69440.1844    0.000000D+00
    69442.1844    0.150050D-30
    69444.1844    0.000000D+00
    69446.1844    0.000000D+00
    69448.1844    0.000000D+00
    69450.1844    0.000000D+00
    69452.1844    0.000000D+00
    69454.1844    0.000000D+00
    69456.1844    0.000000D+00
    69458.1844    0.000000D+00
    69460.1844    0.000000D+00
    69462.1844    0.000000D+00
    69464.1844    0.000000D+00
    69466.1844    0.641834D-07
    69468.1844    0.000000D+00
    69470.1844    0.000000D+00
    69472.1844    0.000000D+00
    69474.1844    0.000000D+00
    69476.1844    0.000000D+00
    69478.1844    0.000000D+00
    69480.1844    0.000000D+00
    69482.1844    0.000000D+00
    69484.1844    0.000000D+00
    69486.1844    0.000000D+00
    69488.1844    0.000000D+00
    69490.1844    0.000000D+00
    69492.1844    0.000000D+00
    69494.1844    0.000000D+00
    69496.1844    0.000000D+00
    69498.1844    0.000000D+00
    69500.1844    0.000000D+00
    69502.1844    0.000000D+00
    69504.1844    0.000000D+00
    69506.1844    0.000000D+00
    69508.1844    0.000000D+00
    69510.1844    0.000000D+00
    69512.1844    0.000000D+00
    69514.1844    0.000000D+00
    69516.1844    0.000000D+00
    69518.1844    0.000000D+00
    69520.1844    0.000000D+00
    69522.1844    0.000000D+00
    69524.1844    0.000000D+00
    69526.1844    0.205096D-34
    69528.1844    0.000000D+00
    69530.1844    0.000000D+00
    69532.1844    0.000000D+00
    69534.1844    0.000000D+00
    69536.1844    0.000000D+00
    69538.1844    0.000000D+00
    69540.1844    0.000000D+00
    69542.1844    0.000000D+00
    69544.1844    0.000000D+00
    69546.1844    0.000000D+00
    69548.1844    0.000000D+00
    69550.1844    0.000000D+00
    69552.1844    0.000000D+00
    69554.1844    0.000000D+00
    69556.1844    0.000000D+00
    69558.1844    0.000000D+00
    69560.1844    0.000000D+00
    69562.1844    0.000000D+00
    69564.1844    0.000000D+00
    69566.1844    0.000000D+00
    69568.1844    0.000000D+00
    69570.1844    0.000000D+00
    69572.1844    0.588742D-34
    69574.1844    0.000000D+00
    69576.1844    0.000000D+00
    69578.1844    0.000000D+00
    69580.1844    0.000000D+00
    69582.1844    0.000000D+00
    69584.1844    0.000000D+00
    69586.1844    0.000000D+00
    69588.1844    0.000000D+00
    69590.1844    0.000000D+00
    69592.1844    0.000000D+00
    69594.1844    0.000000D+00
    69596.1844    0.000000D+00
    69598.1844    0.000000D+00
    69600.1844    0.000000D+00
    69602.1844    0.000000D+00
    69604.1844    0.000000D+00
    69606.1844    0.000000D+00
    69608.1844    0.000000D+00
    69610.1844    0.000000D+00
    69612.1844    0.000000D+00
    69614.1844    0.000000D+00
    69616.1844    0.000000D+00
    69618.1844    0.000000D+00
    69620.1844    0.000000D+00
    69622.1844    0.000000D+00
    69624.1844    0.000000D+00
    69626.1844    0.000000D+00
    69628.1844    0.000000D+00
    69630.1844    0.000000D+00
    69632.1844    0.000000D+00
    69634.1844    0.000000D+00
    69636.1844    0.000000D+00
    69638.1844    0.000000D+00
    69640.1844    0.000000D+00
    69642.1844    0.000000D+00
    69644.1844    0.000000D+00
    69646.1844    0.000000D+00
    69648.1844    0.000000D+00
    69650.1844    0.000000D+00
    69652.1844    0.000000D+00
    69654.1844    0.000000D+00
    69656.1844    0.000000D+00
    69658.1844    0.000000D+00
    69660.1844    0.000000D+00
    69662.1844    0.000000D+00
    69664.1844    0.000000D+00
    69666.1844    0.000000D+00
    69668.1844    0.000000D+00
    69670.1844    0.000000D+00
    69672.1844    0.000000D+00
    69674.1844    0.000000D+00
    69676.1844    0.000000D+00
    69678.1844    0.000000D+00
    69680.1844    0.000000D+00
    69682.1844    0.000000D+00
    69684.1844    0.000000D+00
    69686.1844    0.000000D+00
    69688.1844    0.000000D+00
    69690.1844    0.000000D+00
    69692.1844    0.000000D+00
    69694.1844    0.000000D+00
    69696.1844    0.000000D+00
    69698.1844    0.000000D+00
    69700.1844    0.000000D+00
    69702.1844    0.102556D-31
    69704.1844    0.000000D+00
    69706.1844    0.000000D+00
    69708.1844    0.000000D+00
    69710.1844    0.000000D+00
    69712.1844    0.681180D-07
    69714.1844    0.000000D+00
    69716.1844    0.000000D+00
    69718.1844    0.162263D-33
    69720.1844    0.000000D+00
    69722.1844    0.000000D+00
    69724.1844    0.000000D+00
    69726.1844    0.000000D+00
    69728.1844    0.000000D+00
    69730.1844    0.000000D+00
    69732.1844    0.000000D+00
    69734.1844    0.000000D+00
    69736.1844    0.000000D+00
    69738.1844    0.000000D+00
    69740.1844    0.000000D+00
    69742.1844    0.000000D+00
    69744.1844    0.000000D+00
    69746.1844    0.000000D+00
    69748.1844    0.000000D+00
    69750.1844    0.000000D+00
    69752.1844    0.000000D+00
    69754.1844    0.000000D+00
    69756.1844    0.000000D+00
    69758.1844    0.000000D+00
    69760.1844    0.000000D+00
    69762.1844    0.000000D+00
    69764.1844    0.000000D+00
    69766.1844    0.000000D+00
    69768.1844    0.000000D+00
    69770.1844    0.000000D+00
    69772.1844    0.000000D+00
    69774.1844    0.000000D+00
    69776.1844    0.000000D+00
    69778.1844    0.000000D+00
    69780.1844    0.000000D+00
    69782.1844    0.000000D+00
    69784.1844    0.000000D+00
    69786.1844    0.000000D+00
    69788.1844    0.000000D+00
    69790.1844    0.000000D+00
    69792.1844    0.000000D+00
    69794.1844    0.000000D+00
    69796.1844    0.676111D-40
    69798.1844    0.000000D+00
    69800.1844    0.000000D+00
    69802.1844    0.000000D+00
    69804.1844    0.000000D+00
    69806.1844    0.000000D+00
    69808.1844    0.000000D+00
    69810.1844    0.000000D+00
    69812.1844    0.000000D+00
    69814.1844    0.000000D+00
    69816.1844    0.000000D+00
    69818.1844    0.000000D+00
    69820.1844    0.000000D+00
    69822.1844    0.000000D+00
    69824.1844    0.000000D+00
    69826.1844    0.000000D+00
    69828.1844    0.000000D+00
    69830.1844    0.000000D+00
    69832.1844    0.000000D+00
    69834.1844    0.000000D+00
    69836.1844    0.000000D+00
    69838.1844    0.000000D+00
    69840.1844    0.000000D+00
    69842.1844    0.100875D-35
    69844.1844    0.000000D+00
    69846.1844    0.000000D+00
    69848.1844    0.419402D-31
    69850.1844    0.000000D+00
    69852.1844    0.000000D+00
    69854.1844    0.000000D+00
    69856.1844    0.000000D+00
    69858.1844    0.000000D+00
    69860.1844    0.000000D+00
    69862.1844    0.000000D+00
    69864.1844    0.000000D+00
    69866.1844    0.000000D+00
    69868.1844    0.000000D+00
    69870.1844    0.000000D+00
    69872.1844    0.000000D+00
    69874.1844    0.000000D+00
    69876.1844    0.000000D+00
    69878.1844    0.000000D+00
    69880.1844    0.000000D+00
    69882.1844    0.000000D+00
    69884.1844    0.000000D+00
    69886.1844    0.000000D+00
    69888.1844    0.000000D+00
    69890.1844    0.000000D+00
    69892.1844    0.000000D+00
    69894.1844    0.000000D+00
    69896.1844    0.000000D+00
    69898.1844    0.000000D+00
    69900.1844    0.000000D+00
    69902.1844    0.000000D+00
    69904.1844    0.000000D+00
    69906.1844    0.000000D+00
    69908.1844    0.000000D+00
    69910.1844    0.000000D+00
    69912.1844    0.000000D+00
    69914.1844    0.000000D+00
    69916.1844    0.000000D+00
    69918.1844    0.000000D+00
    69920.1844    0.000000D+00
    69922.1844    0.000000D+00
    69924.1844    0.000000D+00
    69926.1844    0.259816D-09
    69928.1844    0.000000D+00
    69930.1844    0.000000D+00
    69932.1844    0.000000D+00
    69934.1844    0.000000D+00
    69936.1844    0.000000D+00
    69938.1844    0.000000D+00
    69940.1844    0.000000D+00
    69942.1844    0.000000D+00
    69944.1844    0.000000D+00
    69946.1844    0.000000D+00
    69948.1844    0.000000D+00
    69950.1844    0.000000D+00
    69952.1844    0.000000D+00
    69954.1844    0.000000D+00
    69956.1844    0.000000D+00
    69958.1844    0.000000D+00
    69960.1844    0.000000D+00
    69962.1844    0.000000D+00
    69964.1844    0.000000D+00
    69966.1844    0.000000D+00
    69968.1844    0.000000D+00
    69970.1844    0.000000D+00
    69972.1844    0.269314D-07
    69974.1844    0.000000D+00
    69976.1844    0.000000D+00
    69978.1844    0.000000D+00
    69980.1844    0.000000D+00
    69982.1844    0.000000D+00
    69984.1844    0.000000D+00
    69986.1844    0.000000D+00
    69988.1844    0.000000D+00
    69990.1844    0.000000D+00
    69992.1844    0.000000D+00
    69994.1844    0.000000D+00
    69996.1844    0.000000D+00
    69998.1844    0.000000D+00
    70000.1844    0.000000D+00
    70002.1844    0.000000D+00
    70004.1844    0.000000D+00
    70006.1844    0.000000D+00
    70008.1844    0.000000D+00
    70010.1844    0.000000D+00
    70012.1844    0.239384D-34
    70014.1844    0.000000D+00
    70016.1844    0.000000D+00
    70018.1844    0.000000D+00
    70020.1844    0.000000D+00
    70022.1844    0.000000D+00
    70024.1844    0.000000D+00
    70026.1844    0.000000D+00
    70028.1844    0.000000D+00
    70030.1844    0.000000D+00
    70032.1844    0.000000D+00
    70034.1844    0.000000D+00
    70036.1844    0.000000D+00
    70038.1844    0.000000D+00
    70040.1844    0.000000D+00
    70042.1844    0.000000D+00
    70044.1844    0.000000D+00
    70046.1844    0.000000D+00
    70048.1844    0.000000D+00
    70050.1844    0.000000D+00
    70052.1844    0.000000D+00
    70054.1844    0.000000D+00
    70056.1844    0.000000D+00
    70058.1844    0.000000D+00
    70060.1844    0.000000D+00
    70062.1844    0.000000D+00
    70064.1844    0.000000D+00
    70066.1844    0.000000D+00
    70068.1844    0.000000D+00
    70070.1844    0.000000D+00
    70072.1844    0.000000D+00
    70074.1844    0.000000D+00
    70076.1844    0.000000D+00
    70078.1844    0.000000D+00
    70080.1844    0.000000D+00
    70082.1844    0.000000D+00
    70084.1844    0.000000D+00
    70086.1844    0.000000D+00
    70088.1844    0.000000D+00
    70090.1844    0.000000D+00
    70092.1844    0.000000D+00
    70094.1844    0.000000D+00
    70096.1844    0.000000D+00
    70098.1844    0.000000D+00
    70100.1844    0.000000D+00
    70102.1844    0.862084D-37
    70104.1844    0.000000D+00
    70106.1844    0.000000D+00
    70108.1844    0.000000D+00
    70110.1844    0.000000D+00
    70112.1844    0.000000D+00
    70114.1844    0.000000D+00
    70116.1844    0.000000D+00
    70118.1844    0.110088D-06
    70120.1844    0.000000D+00
    70122.1844    0.000000D+00
    70124.1844    0.488096D-35
    70126.1844    0.000000D+00
    70128.1844    0.000000D+00
    70130.1844    0.000000D+00
    70132.1844    0.000000D+00
    70134.1844    0.000000D+00
    70136.1844    0.000000D+00
    70138.1844    0.000000D+00
    70140.1844    0.000000D+00
    70142.1844    0.655121D-30
    70144.1844    0.000000D+00
    70146.1844    0.000000D+00
    70148.1844    0.000000D+00
    70150.1844    0.000000D+00
    70152.1844    0.000000D+00
    70154.1844    0.000000D+00
    70156.1844    0.000000D+00
    70158.1844    0.000000D+00
    70160.1844    0.000000D+00
    70162.1844    0.000000D+00
    70164.1844    0.000000D+00
    70166.1844    0.000000D+00
    70168.1844    0.000000D+00
    70170.1844    0.000000D+00
    70172.1844    0.000000D+00
    70174.1844    0.000000D+00
    70176.1844    0.000000D+00
    70178.1844    0.000000D+00
    70180.1844    0.000000D+00
    70182.1844    0.000000D+00
    70184.1844    0.000000D+00
    70186.1844    0.000000D+00
    70188.1844    0.000000D+00
    70190.1844    0.000000D+00
    70192.1844    0.000000D+00
    70194.1844    0.000000D+00
    70196.1844    0.000000D+00
    70198.1844    0.000000D+00
    70200.1844    0.000000D+00
    70202.1844    0.000000D+00
    70204.1844    0.000000D+00
    70206.1844    0.000000D+00
    70208.1844    0.000000D+00
    70210.1844    0.000000D+00
    70212.1844    0.000000D+00
    70214.1844    0.000000D+00
    70216.1844    0.000000D+00
    70218.1844    0.000000D+00
    70220.1844    0.000000D+00
    70222.1844    0.000000D+00
    70224.1844    0.000000D+00
    70226.1844    0.000000D+00
    70228.1844    0.000000D+00
    70230.1844    0.000000D+00
    70232.1844    0.188656D-08
    70234.1844    0.000000D+00
    70236.1844    0.000000D+00
    70238.1844    0.000000D+00
    70240.1844    0.000000D+00
    70242.1844    0.116098D-32
    70244.1844    0.000000D+00
    70246.1844    0.000000D+00
    70248.1844    0.466310D-36
    70250.1844    0.000000D+00
    70252.1844    0.000000D+00
    70254.1844    0.000000D+00
    70256.1844    0.000000D+00
    70258.1844    0.000000D+00
    70260.1844    0.000000D+00
    70262.1844    0.000000D+00
    70264.1844    0.000000D+00
    70266.1844    0.000000D+00
    70268.1844    0.000000D+00
    70270.1844    0.000000D+00
    70272.1844    0.565157D-36
    70274.1844    0.000000D+00
    70276.1844    0.000000D+00
    70278.1844    0.000000D+00
    70280.1844    0.000000D+00
    70282.1844    0.000000D+00
    70284.1844    0.000000D+00
    70286.1844    0.000000D+00
    70288.1844    0.000000D+00
    70290.1844    0.000000D+00
    70292.1844    0.000000D+00
    70294.1844    0.000000D+00
    70296.1844    0.000000D+00
    70298.1844    0.000000D+00
    70300.1844    0.000000D+00
    70302.1844    0.000000D+00
    70304.1844    0.000000D+00
    70306.1844    0.000000D+00
    70308.1844    0.000000D+00
    70310.1844    0.000000D+00
    70312.1844    0.000000D+00
    70314.1844    0.000000D+00
    70316.1844    0.000000D+00
    70318.1844    0.000000D+00
    70320.1844    0.000000D+00
    70322.1844    0.000000D+00
    70324.1844    0.169793D-36
    70326.1844    0.000000D+00
    70328.1844    0.000000D+00
    70330.1844    0.000000D+00
    70332.1844    0.681186D-09
    70334.1844    0.000000D+00
    70336.1844    0.000000D+00
    70338.1844    0.000000D+00
    70340.1844    0.000000D+00
    70342.1844    0.000000D+00
    70344.1844    0.000000D+00
    70346.1844    0.000000D+00
    70348.1844    0.000000D+00
    70350.1844    0.000000D+00
    70352.1844    0.000000D+00
    70354.1844    0.000000D+00
    70356.1844    0.000000D+00
    70358.1844    0.000000D+00
    70360.1844    0.000000D+00
    70362.1844    0.000000D+00
    70364.1844    0.000000D+00
    70366.1844    0.000000D+00
    70368.1844    0.000000D+00
    70370.1844    0.000000D+00
    70372.1844    0.000000D+00
    70374.1844    0.000000D+00
    70376.1844    0.000000D+00
    70378.1844    0.688183D-08
    70380.1844    0.000000D+00
    70382.1844    0.000000D+00
    70384.1844    0.000000D+00
    70386.1844    0.000000D+00
    70388.1844    0.000000D+00
    70390.1844    0.000000D+00
    70392.1844    0.000000D+00
    70394.1844    0.000000D+00
    70396.1844    0.000000D+00
    70398.1844    0.000000D+00
    70400.1844    0.000000D+00
    70402.1844    0.000000D+00
    70404.1844    0.000000D+00
    70406.1844    0.000000D+00
    70408.1844    0.000000D+00
    70410.1844    0.000000D+00
    70412.1844    0.000000D+00
    70414.1844    0.000000D+00
    70416.1844    0.000000D+00
    70418.1844    0.000000D+00
    70420.1844    0.000000D+00
    70422.1844    0.000000D+00
    70424.1844    0.000000D+00
    70426.1844    0.000000D+00
    70428.1844    0.000000D+00
    70430.1844    0.000000D+00
    70432.1844    0.000000D+00
    70434.1844    0.000000D+00
    70436.1844    0.000000D+00
    70438.1844    0.000000D+00
    70440.1844    0.000000D+00
    70442.1844    0.000000D+00
    70444.1844    0.000000D+00
    70446.1844    0.000000D+00
    70448.1844    0.000000D+00
    70450.1844    0.000000D+00
    70452.1844    0.000000D+00
    70454.1844    0.000000D+00
    70456.1844    0.000000D+00
    70458.1844    0.000000D+00
    70460.1844    0.000000D+00
    70462.1844    0.000000D+00
    70464.1844    0.000000D+00
    70466.1844    0.000000D+00
    70468.1844    0.000000D+00
    70470.1844    0.000000D+00
    70472.1844    0.000000D+00
    70474.1844    0.000000D+00
    70476.1844    0.000000D+00
    70478.1844    0.000000D+00
    70480.1844    0.000000D+00
    70482.1844    0.000000D+00
 -----------------------------

 Leave Link  718 at Thu Jul 10 12:07:34 2025, MaxMem= 12348030976 cpu:              97.8 elap:               1.8
 (Enter /home/hhratchian/gaussian/gdv-20250101-j30+/gdv/local/l9999.exe)

 ----------------------------------------------------------------------

 Electric dipole moment (input orientation):
 (Debye = 10**-18 statcoulomb cm , SI units = C m)
                  (au)            (Debye)         (10**-30 SI)
   Tot        0.969280D+00      0.246366D+01      0.821790D+01
   x          0.000000D+00      0.000000D+00      0.000000D+00
   y          0.000000D+00      0.000000D+00      0.000000D+00
   z         -0.969280D+00     -0.246366D+01     -0.821790D+01

 Dipole polarizability, Alpha (input orientation).
 (esu units = cm**3 , SI units = C**2 m**2 J**-1)
 Alpha(0;0):
               (au)            (10**-24 esu)      (10**-40 SI)
   iso        0.443587D+01      0.657328D+00      0.731376D+00
   aniso      0.480772D+01      0.712431D+00      0.792686D+00
   xx         0.148030D+01      0.219358D+00      0.244068D+00
   yx         0.000000D+00      0.000000D+00      0.000000D+00
   yy         0.698752D+01      0.103544D+01      0.115209D+01
   zx         0.000000D+00      0.000000D+00      0.000000D+00
   zy         0.000000D+00      0.000000D+00      0.000000D+00
   zz         0.483978D+01      0.717182D+00      0.797972D+00

 ----------------------------------------------------------------------

 Dipole orientation:
     8         -0.00000000         -0.00000000         -0.22259084
     1          0.00000000         -1.43082503          0.89036336
     1         -0.00000000          1.43082503          0.89036336

 Electric dipole moment (dipole orientation):
 (Debye = 10**-18 statcoulomb cm , SI units = C m)
                  (au)            (Debye)         (10**-30 SI)
   Tot        0.969280D+00      0.246366D+01      0.821790D+01
   x          0.000000D+00      0.000000D+00      0.000000D+00
   y          0.000000D+00      0.000000D+00      0.000000D+00
   z          0.969280D+00      0.246366D+01      0.821790D+01

 Dipole polarizability, Alpha (dipole orientation).
 (esu units = cm**3 , SI units = C**2 m**2 J**-1)
 Alpha(0;0):
               (au)            (10**-24 esu)      (10**-40 SI)
   iso        0.443587D+01      0.657328D+00      0.731376D+00
   aniso      0.480772D+01      0.712431D+00      0.792686D+00
   xx         0.148030D+01      0.219358D+00      0.244068D+00
   yx         0.000000D+00      0.000000D+00      0.000000D+00
   yy         0.698752D+01      0.103544D+01      0.115209D+01
   zx         0.000000D+00      0.000000D+00      0.000000D+00
   zy         0.000000D+00      0.000000D+00      0.000000D+00
   zz         0.483978D+01      0.717182D+00      0.797972D+00

 ----------------------------------------------------------------------

 No summary archive entry generated for this type of calculation.


 A true friend is someone who is there for
 you when he'd rather be anywhere else.
                               -- Len Wein
 Job cpu time:       0 days  0 hours  1 minutes 44.9 seconds.
 Elapsed time:       0 days  0 hours  0 minutes  2.2 seconds.
 File lengths (MBytes):  RWF=     22 Int=      0 D2E=      0 Chk=      2 Scr=      2
 Normal termination of Gaussian DV at Thu Jul 10 12:07:34 2025.
