 Set GAUSS_MDEF to "92GB".
 Set GAUSS_PDEF to "56".
 Entering Gaussian System, Link 0=/home/hhratchian/gaussian//gdv-20240213-j26+/gdv/gdv
 AtFile(1): Gd3O3_book_24.xyz
             Gd,0,-0.5925471261,2.6436217282,-0.3810978945
             Gd,0,-2.572421351,-0.0206846677,0.1593294162
             Gd,0,1.4793027594,0.0514582682,0.1614234248
             O,0,1.397739677,2.085863325,0.3135662788
             O,0,-0.550858958,0.2090864661,-0.5660352445
             O,0,-2.5630223778,2.0151147697,0.3128140192
 AtFile(1): SDDPlusTZ.gbs
            ! SDDPlusTZ Basis Set + ECP
            !
            !
            ! Last updated/modified by: H. P. Hratchian, August 2017.
            !
            !
            ! This file contains parameters for the SDD+TZ basis set and ECP, given in the
            ! Gaussian input format. This set is often used in the Hratchian Group's metal
            ! oxide cluster work. References to this basis and ECP are:
            !      (1) Waller, S. E.; Mann, J. E.; Rothgeb, D. W.; Jarrold, C. C. J. Phys.
            !          Chem. A 2012, 116 (39), 9639–9652.
            !      (2) Mayhall, N. J.; Rothgeb, D. W.; Hossain, E.; Raghavachari, K.;
            !          Jarrold, C. C. J. Chem. Phys. 2009, 130, 124313− 124323.
            !      (3) Andrae, D.; Haussermann, U.; Dolg, M.; Stoll, H.; Preuss, H. Theor.
            !          Chim. Acta 1990, 77, 123−141.
            !
            -Sc 0
            SDD
            S 1 1.00
             0.003 1.0
            P 1 1.00
             0.0071415 1.0
            D 1 1.00
             0.012 1.0
             F   1 1.00
                  0.180    1.0
             F   1 1.00
                  0.764    1.0
             G   1 1.00
                  0.347    1.0
            ****
            -Ti 0
            SDD
            S 1 1.00
             0.003 1.0
            P 1 1.00
             0.0071352 1.0
            D 1 1.00
             0.015 1.0
             F   1 1.00
                  0.285    1.0
             F   1 1.00
                  1.264    1.0
             G   1 1.00
                  0.636    1.0
            ****
            -V 0
            SDD
            S 1 1.00
             0.003 1.0
            P 1 1.00
             0.0079179 1.0
            D 1 1.00
             0.018 1.0
             F   1 1.00
                  0.425    1.0
             F   1 1.00
                  1.788    1.0
             G   1 1.00
                  1.048    1.0
            ****
            -Cr 0
            SDD
            S 1 1.00
             0.003 1.0
            P 1 1.00
             0.0079935 1.0
            D 1 1.00
             0.021 1.0
             F   1 1.00
                  0.640    1.0
             F   1 1.00
                  2.555    1.0
             G   1 1.00
                  1.712    1.0
            ****
            -Mn 0
            SDD
            S 1 1.00
             0.003 1.0
            P 1 1.00
             0.0084888 1.0
            D 1 1.00
             0.021 1.0
             F   1 1.00
                  0.795    1.0
             F   1 1.00
                  3.118    1.0
             G   1 1.00
                  1.964    1.0
            ****
            -Fe 0
            SDD
            S 1 1.00
             0.003 1.0
            P 1 1.00
             0.0088332 1.0
            D 1 1.00
             0.024 1.0
             F   1 1.00
                  0.871    1.0
             F   1 1.00
                  3.516    1.0
             G   1 1.00
                  2.269    1.0
            ****
            -Co 0
            SDD
            S 1 1.00
             0.003 1.0
            P 1 1.00
             0.0091782 1.0
            D 1 1.00
             0.027 1.0
             F   1 1.00
                  1.019    1.0
             F   1 1.00
                  4.076    1.0
             G   1 1.00
                  2.711    1.0
            ****
            -Ni 0
            SDD
            S 1 1.00
             0.003 1.0
            P 1 1.00
             0.0095352 1.0
            D 1 1.00
             0.027 1.0
             F   1 1.00
                  1.182    1.0
             F   1 1.00
                  4.685    1.0
             G   1 1.00
                  3.212    1.0
            ****
            -Cu 0
            SDD
            S 1 1.00
             0.003 1.0
            P 1 1.00
             0.0092634 1.0
            D 1 1.00
             0.030 1.0
             F   1 1.00
                  1.315    1.0
             F   1 1.00
                  5.208    1.0
             G   1 1.00
                  3.665    1.0
            ****
            -Zn 0
            SDD
            S 1 1.00
             0.003 1.0
            P 1 1.00
             0.0149958 1.0
            D 1 1.00
             0.033 1.0
             F   1 1.00
                  1.498    1.0
             F   1 1.00
                  5.871    1.0
             G   1 1.00
                  4.365    1.0
            ****
            -Y 0
            SDD
            S 1 1.00
             0.003 1.0
            P 1 1.00
             0.0066708 1.0
            D 1 1.00
             0.006 1.0
             F   1 1.00
                  0.144    1.0
             F   1 1.00
                  0.546    1.0
             G   1 1.00
                  0.249    1.0
            ****
            -Zr 0
            SDD
            S 1 1.00
             0.0033 1.0
            P 1 1.00
             0.0067569 1.0
            D 1 1.00
             0.009 1.0
             F   1 1.00
                  0.236    1.0
             F   1 1.00
                  0.883    1.0
             G   1 1.00
                  0.547    1.0
            ****
            -Nb 0
            SDD
            S 1 1.00
             0.0045 1.0
            P 1 1.00
             0.0701512 1.0
            D 1 1.00
             0.011 1.0
             F    1 1.00
                   0.261   1.0
             F    1 1.00
                   0.970   1.0
             G    1 1.00
                   0.536   1.0
            ****
            -Mo 0
            SDD
            S 1 1.00
             0.0045 1.0
            P 1 1.00
             0.0070821 1.0
            D 1 1.00
             0.0129 1.0
             F   1 1.00
                  0.338    1.0
             F   1 1.00
                  1.223    1.0
             G   1 1.00
                  0.744    1.0
            ****
            -Ru 0
            SDD
            S 1 1.00
             0.0048 1.0
            P 1 1.00
             0.0068781 1.0
            D 1 1.00
             0.0153 1.0
             F   1 1.00
                  0.478    1.0
             F   1 1.00
                  1.666    1.0
             G   1 1.00
                  1.057    1.0
            ****
            -Rh 0
            SDD
            S 1 1.00
             0.0048 1.0
            P 1 1.00
             0.007251 1.0
            D 1 1.00
             0.0165 1.0
             F   1 1.00
                  0.567    1.0
             F   1 1.00
                  1.989    1.0
             G   1 1.00
                  1.236    1.0
            ****
            -Pd 0
            SDD
            S 1 1.00
             0.0048 1.0
            P 1 1.00
             0.0074262 1.0
            D 1 1.00
             0.018 1.0
             F   1 1.00
                  0.621    1.0
             F   1 1.00
                  2.203    1.0
             G   1 1.00
                  1.385    1.0
            ****
            -Ag 0
            SDD
            S 1 1.00
             0.0048 1.0
            P 1 1.00
             0.0071169 1.0
            D 1 1.00
             0.0198 1.0
             F   1 1.00
                  0.732    1.0
             F   1 1.00
                  2.537    1.0
             G   1 1.00
                  1.587    1.0
            ****
            -Cd 0
            SDD
            S 1 1.00
             0.0057 1.0
            P 1 1.00
             0.0109932 1.0
            D 1 1.00
             0.0225 1.0
             F   1 1.00
                  0.834    1.0
             F   1 1.00
                  2.853    1.0
             G   1 1.00
                  1.795    1.0
            ****
            -W 0
             SDD
            S 1 1.00
             0.0045 1.0
            P 1 1.00
             0.0081084 1.0
            D 1 1.00
             0.012 1.0
             F   1 1.00
                  0.256    1.0
             F   1 1.00
                  0.825    1.0
             G   1 1.00
                  0.627    1.0
            ****
            -Os 0
            SDD
            S 1 1.00
             0.0045 1.0
            P 1 1.00
             0.0079971 1.0
            D 1 1.00
             0.015 1.0
             F   1 1.00
                  0.347    1.0
             F   1 1.00
                  1.067    1.0
             G   1 1.00
                  0.860    1.0
            ****
            -Ir 0
            SDD
            S 1 1.00
             0.0045 1.0
            P 1 1.00
             0.0082092 1.0
            D 1 1.00
             0.015 1.0
             F   1 1.00
                  0.395    1.0
             F   1 1.00
                  1.189    1.0
             G   1 1.00
                  0.982    1.0
            ****
            -Pt 0
            SDD
            S 1 1.00
             0.0045 1.0
            P 1 1.00
             0.0083406 1.0
            D 1 1.00
             0.015 1.0
             F   1 1.00
                  0.443    1.0
             F   1 1.00
                  1.323    1.0
             G   1 1.00
                  1.100    1.0
            ****
            -Au 0
            SDD
            S 1 1.00
             0.0019245 1.0
            P 1 1.00
             0.0102 1.0
            D 1 1.00
             0.0136536 1.0
             F   1 1.00
                  1.461    1.0
             F   1 1.00
                  0.498    1.0
             G   1 1.00
                  1.218    1.0
            ****
            !
            ! Gd ... HPH Added S, P, D, and F diffuse functions using 0.3 exponent ratio.
            -Gd 0
            SDD
            S 1 1.00
             0.0071100 1.0
            P 1 1.00
             0.0240000 1.0
            D 1 1.00
             0.0311100 1.0
            F 1 1.00
             0.0856500 1.0
            ****
            -H  B  C  N  O  F  P  S  Cl 0
            aug-cc-pVTz
            ****
            
            -Sc  Ti  V  Cr  Mn  Fe  Co  Ni  Cu  Zn  Y  Zr  Nb  Mo  Ru  Rh  Pd  Ag  Cd  W  Os  Ir  Pt  Au  Gd  0
            SDD
 Initial command:
 /home/hhratchian/gaussian//gdv-20240213-j26+/gdv/l1.exe "/home/aaboutaka/Gd3O3/Calebs/1450157/Gau-1528220.inp" -scrdir="/home/aaboutaka/Gd3O3/Calebs/1450157/"
 Default is to use a total of  56 processors:
                               56 via shared-memory
                                1 via Linda
 Entering Link 1 = /home/hhratchian/gaussian//gdv-20240213-j26+/gdv/l1.exe PID=   1528221.
  
 Copyright (c) 1988-2023, Gaussian, Inc.  All Rights Reserved.
  
 This is the private, development version of
 the Gaussian(R) DV system of programs. It is based on
 the Gaussian(R) 16 system (copyright 2016, Gaussian, Inc.),
 the Gaussian(R) 09 system (copyright 2009, Gaussian, Inc.),
 the Gaussian(R) 03 system (copyright 2003, Gaussian, Inc.),
 the Gaussian(R) 98 system (copyright 1998, Gaussian, Inc.),
 the Gaussian(R) 94 system (copyright 1995, Gaussian, Inc.),
 the Gaussian 92(TM) system (copyright 1992, Gaussian, Inc.),
 the Gaussian 90(TM) system (copyright 1990, Gaussian, Inc.),
 the Gaussian 88(TM) system (copyright 1988, Gaussian, Inc.),
 the Gaussian 86(TM) system (copyright 1986, Carnegie Mellon
 University), and the Gaussian 82(TM) system (copyright 1983,
 Carnegie Mellon University). Gaussian is a federally registered
 trademark of Gaussian, Inc.
  
 This software contains proprietary and confidential information,
 including trade secrets, belonging to Gaussian, Inc.
  
 This software is provided under written license and may be
 used, copied, transmitted, or stored only in accord with that
 written license.
  
 The following legend is applicable only to US Government
 contracts under FAR:
  
                    RESTRICTED RIGHTS LEGEND
  
 Use, reproduction and disclosure by the US Government is
 subject to restrictions as set forth in subparagraphs (a)
 and (c) of the Commercial Computer Software - Restricted
 Rights clause in FAR 52.227-19.
  
 Gaussian, Inc.
 340 Quinnipiac St., Bldg. 40, Wallingford CT 06492
  
  
 ---------------------------------------------------------------
 Warning -- This program may not be used in any manner that
 competes with the business of Gaussian, Inc. or will provide
 assistance to any competitor of Gaussian, Inc.  The licensee
 of this program is prohibited from giving any competitor of
 Gaussian, Inc. access to this program.  By using this program,
 the user acknowledges that Gaussian, Inc. is engaged in the
 business of creating and licensing software in the field of
 computational chemistry and represents and warrants to the
 licensee that it is not a competitor of Gaussian, Inc. and that
 it will not use this program in any manner prohibited above.
 ---------------------------------------------------------------
  

 Cite this work as:
 Gaussian Development Version, Revision J.26+,
 M. J. Frisch, G. W. Trucks, G. Scalmani, J. R. Cheeseman, X. Li, 
 J. Bloino, B. G. Janesko, A. V. Marenich, J. Zheng, F. Lipparini, 
 A. Jenkins, A. Liu, H. Liu, H. B. Schlegel, G. E. Scuseria, 
 M. A. Robb, V. Barone, G. A. Petersson, H. Nakatsuji, B. Mennucci, 
 C. Adamo, N. Rega, M. Caricato, H. P. Hratchian, J. V. Ortiz, 
 A. F. Izmaylov, H. Hu, C. Liao, J. L. Sonnenberg, D. Williams-Young, 
 F. Ding, R. Gomperts, F. Egidi, J. Goings, B. Peng, A. Petrone, 
 T. Henderson, D. Ranasinghe, V. G. Zakrzewski, J. Gao, G. Zheng, 
 W. Liang, M. Hada, M. Ehara, K. Toyota, R. Fukuda, J. Hasegawa, 
 M. Ishida, T. Nakajima, Y. Honda, O. Kitao, H. Nakai, T. Vreven, 
 K. Throssell, J. A. Montgomery, Jr., J. E. Peralta, F. Ogliaro, 
 M. J. Bearpark, J. J. Heyd, E. N. Brothers, K. N. Kudin, 
 V. N. Staroverov, T. A. Keith, R. Kobayashi, J. Normand, 
 K. Raghavachari, A. P. Rendell, J. C. Burant, S. S. Iyengar, 
 M. Cossi, J. M. Millam, M. Klene, R. Cammi, R. L. Martin, O. Farkas, 
 J. B. Foresman, and D. J. Fox, Gaussian, Inc., Wallingford CT, 2023.
 
 *******************************************
 Gaussian DV:  EM64L-GDVRevJ.26+  9-Sep-2023
                 12-Jun-2025 
 *******************************************
 %chk=Gd3O3_book_24_uwb97xd.chk
 -----------------------------------------------------------------
 #p uwb97xd genecp scf=(fermi,zqc) integral=SuperFineGrid opt freq
 -----------------------------------------------------------------
 1/18=20,19=15,26=5,37=210000000,38=1/1,3;
 2/9=110,12=2/2;
 3/5=7,11=2,16=1,17=8,25=1,30=1,71=1,74=-58,75=-7,116=2/1,2,3;
 4//1;
 5/5=2,8=4,13=1,22=13,38=1/2,8,2,8;
 6/7=2,8=2,9=2,10=2,28=1/1;
 7//1,2,3,16;
 1/18=20,19=15,26=5/3(2);
 2/9=110/2;
 99//99;
 2/9=110/2;
 3/5=7,6=1,11=2,16=1,17=8,25=1,30=1,71=1,74=-58,75=-7,82=7,116=2,187=7/1,2,3;
 4/5=5,16=3,69=1/1;
 5/5=2,8=4,13=1,22=13,38=1/2,8,2,8;
 7//1,2,3,16;
 1/18=20,19=15,26=5/3(-5);
 2/9=110/2;
 6/7=2,8=2,9=2,10=2,19=2,28=1/1;
 99/9=1/99;
 Leave Link    1 at Thu Jun 12 14:05:13 2025, MaxMem=           0 cpu:               0.2 elap:               0.1
 (Enter /home/hhratchian/gaussian//gdv-20240213-j26+/gdv/l101.exe)
 -------------------
 Title Card Required
 -------------------
 Symbolic Z-matrix:
 Charge =    -1 Multiplicity =    24
 Gd                   0    -0.59255   2.64362  -0.3811 
 Gd                   0    -2.57242  -0.02068   0.15933 
 Gd                   0     1.4793    0.05146   0.16142 
 O                    0     1.39774   2.08586   0.31357 
 O                    0    -0.55086   0.20909  -0.56604 
 O                    0    -2.56302   2.01511   0.31281 
 
 Add atom      1 valence  5 ND=      0 dihedral       2      1      3      4
 Add atom      1 valence  5 ND=      0 dihedral       2      1      3      5
 Add atom      1 valence  5 ND=      0 dihedral       2      1      4      5
 Add atom      1 valence  5 ND=      0 dihedral       2      1      3      6
 Add atom      1 valence  5 ND=      0 dihedral       2      1      4      6
 Add atom      1 valence  5 ND=      0 dihedral       2      1      5      6
 ITRead=  0  0  0  0  0  0
 MicOpt= -1 -1 -1 -1 -1 -1
 NAtoms=      6 NQM=        6 NQMF=       0 NMMI=      0 NMMIF=      0
                NMic=       0 NMicF=      0.
                    Isotopes and Nuclear Properties:
 (Nuclear quadrupole moments (NQMom) in fm**2, nuclear magnetic moments (NMagM)
  in nuclear magnetons)

  Atom         1           2           3           4           5           6
 IAtWgt=         158         158         158          16          16          16
 AtmWgt= 157.9241000 157.9241000 157.9241000  15.9949146  15.9949146  15.9949146
 NucSpn=           0           0           0           0           0           0
 AtZEff=  -0.0000000  -0.0000000  -0.0000000  -0.0000000  -0.0000000  -0.0000000
 NQMom=    0.0000000   0.0000000   0.0000000   0.0000000   0.0000000   0.0000000
 NMagM=    0.0000000   0.0000000   0.0000000   0.0000000   0.0000000   0.0000000
 AtZNuc=  64.0000000  64.0000000  64.0000000   8.0000000   8.0000000   8.0000000
 Leave Link  101 at Thu Jun 12 14:05:13 2025, MaxMem= 12348030976 cpu:               0.4 elap:               0.3
 (Enter /home/hhratchian/gaussian//gdv-20240213-j26+/gdv/l103.exe)

 GradGradGradGradGradGradGradGradGradGradGradGradGradGradGradGradGradGrad
 Berny optimization.
 Initialization pass.
                           ----------------------------
                           !    Initial Parameters    !
                           ! (Angstroms and Degrees)  !
 --------------------------                            --------------------------
 ! Name  Definition              Value          Derivative Info.                !
 --------------------------------------------------------------------------------
 ! R1    R(1,2)                  3.3631         estimate D2E/DX2                !
 ! R2    R(1,3)                  3.3625         estimate D2E/DX2                !
 ! R3    R(1,4)                  2.1806         estimate D2E/DX2                !
 ! R4    R(1,5)                  2.4419         estimate D2E/DX2                !
 ! R5    R(1,6)                  2.1816         estimate D2E/DX2                !
 ! R6    R(2,5)                  2.16           estimate D2E/DX2                !
 ! R7    R(2,6)                  2.0416         estimate D2E/DX2                !
 ! R8    R(3,4)                  2.0417         estimate D2E/DX2                !
 ! R9    R(3,5)                  2.1623         estimate D2E/DX2                !
 ! A1    A(2,1,3)               74.1027         estimate D2E/DX2                !
 ! A2    A(2,1,4)              106.4693         estimate D2E/DX2                !
 ! A3    A(3,1,6)              106.4469         estimate D2E/DX2                !
 ! A4    A(4,1,5)               75.7314         estimate D2E/DX2                !
 ! A5    A(4,1,6)              130.4957         estimate D2E/DX2                !
 ! A6    A(5,1,6)               75.6575         estimate D2E/DX2                !
 ! A7    A(5,2,6)               85.1162         estimate D2E/DX2                !
 ! A8    A(4,3,5)               85.1197         estimate D2E/DX2                !
 ! A9    A(2,5,3)              139.2858         estimate D2E/DX2                !
 ! D1    D(2,1,3,4)           -153.9773         estimate D2E/DX2                !
 ! D2    D(2,1,3,5)             25.4067         estimate D2E/DX2                !
 ! D3    D(2,1,3,6)            -15.5509         estimate D2E/DX2                !
 ! D4    D(2,1,4,5)             25.696          estimate D2E/DX2                !
 ! D5    D(2,1,4,6)            -30.711          estimate D2E/DX2                !
 ! D6    D(2,1,5,6)             -0.3827         estimate D2E/DX2                !
 ! D7    D(6,2,5,3)             99.5303         estimate D2E/DX2                !
 ! D8    D(4,3,5,2)            -99.5713         estimate D2E/DX2                !
 --------------------------------------------------------------------------------
 Trust Radius=3.00D-01 FncErr=1.00D-07 GrdErr=1.00D-07 EigMax=2.50D+02 EigMin=1.00D-04
 Number of steps in this run=     36 maximum allowed number of steps=    100.
 GradGradGradGradGradGradGradGradGradGradGradGradGradGradGradGradGradGrad

 Leave Link  103 at Thu Jun 12 14:05:13 2025, MaxMem= 12348030976 cpu:               0.1 elap:               0.0
 (Enter /home/hhratchian/gaussian//gdv-20240213-j26+/gdv/l202.exe)
                          Input orientation:                          
 ---------------------------------------------------------------------
 Center     Atomic      Atomic             Coordinates (Angstroms)
 Number     Number       Type             X           Y           Z
 ---------------------------------------------------------------------
      1         64           0       -0.592547    2.643622   -0.381098
      2         64           0       -2.572421   -0.020685    0.159329
      3         64           0        1.479303    0.051458    0.161423
      4          8           0        1.397740    2.085863    0.313566
      5          8           0       -0.550859    0.209086   -0.566035
      6          8           0       -2.563022    2.015115    0.312814
 ---------------------------------------------------------------------
                    Distance matrix (angstroms):
                    1          2          3          4          5
     1  Gd   0.000000
     2  Gd   3.363108   0.000000
     3  Gd   3.362470   4.052367   0.000000
     4  O    2.180572   4.497056   2.041716   0.000000
     5  O    2.441905   2.160015   2.162313   2.844825   0.000000
     6  O    2.181584   2.041599   4.496583   3.961394   2.843047
                    6
     6  O    0.000000
 Stoichiometry    Gd3O3(1-,24)
 Framework group  C1[X(Gd3O3)]
 Deg. of freedom    12
 Full point group                 C1      NOp   1
 Largest Abelian subgroup         C1      NOp   1
 Largest concise Abelian subgroup C1      NOp   1
                         Standard orientation:                         
 ---------------------------------------------------------------------
 Center     Atomic      Atomic             Coordinates (Angstroms)
 Number     Number       Type             X           Y           Z
 ---------------------------------------------------------------------
      1         64           0       -0.000904    1.728834    0.083603
      2         64           0        2.026589   -0.952392   -0.020261
      3         64           0       -2.025778   -0.953568   -0.020360
      4          8           0       -1.981088    1.029620   -0.503651
      5          8           0        0.001525   -0.642947    0.664591
      6          8           0        1.980306    1.030336   -0.504796
 ---------------------------------------------------------------------
 Rotational constants (GHZ):           0.6195026           0.3513039           0.2274860
 Leave Link  202 at Thu Jun 12 14:05:13 2025, MaxMem= 12348030976 cpu:               0.2 elap:               0.0
 (Enter /home/hhratchian/gaussian//gdv-20240213-j26+/gdv/l301.exe)
 General  basis read from cards:  (5D, 7F)
 Centers:       1      2      3
 SDD
 S 1 1.00
     Exponent=  7.1100000000D-03 Coefficients=  1.0000000000D+00
 P 1 1.00
     Exponent=  2.4000000000D-02 Coefficients=  1.0000000000D+00
 D 1 1.00
     Exponent=  3.1110000000D-02 Coefficients=  1.0000000000D+00
 F 1 1.00
     Exponent=  8.5650000000D-02 Coefficients=  1.0000000000D+00
 ****
 Centers:       4      5      6
 aug-cc-pVTz
 ****
 ======================================================================================================
                                       Pseudopotential Parameters
 ======================================================================================================
  Center     Atomic      Valence      Angular      Power
  Number     Number     Electrons     Momentum     of R      Exponent        Coefficient   SO-Coeffient
 ======================================================================================================
    1         64           36
                                      H and up 
                                                     2        1.0000000        0.00000000    0.00000000
                                      S - H
                                                     2       24.6021510      637.20086900    0.00000000
                                      P - H
                                                     2       16.8892500      261.68960100    0.00000000
                                      D - H
                                                     2       13.6433580      106.85653300    0.00000000
                                      F - H
                                                     2       24.1269170      -50.68359000    0.00000000
                                      G - H
                                                     2       22.1318870      -27.57963000    0.00000000
    2         64           36
                                      H and up 
                                                     2        1.0000000        0.00000000    0.00000000
                                      S - H
                                                     2       24.6021510      637.20086900    0.00000000
                                      P - H
                                                     2       16.8892500      261.68960100    0.00000000
                                      D - H
                                                     2       13.6433580      106.85653300    0.00000000
                                      F - H
                                                     2       24.1269170      -50.68359000    0.00000000
                                      G - H
                                                     2       22.1318870      -27.57963000    0.00000000
    3         64           36
                                      H and up 
                                                     2        1.0000000        0.00000000    0.00000000
                                      S - H
                                                     2       24.6021510      637.20086900    0.00000000
                                      P - H
                                                     2       16.8892500      261.68960100    0.00000000
                                      D - H
                                                     2       13.6433580      106.85653300    0.00000000
                                      F - H
                                                     2       24.1269170      -50.68359000    0.00000000
                                      G - H
                                                     2       22.1318870      -27.57963000    0.00000000
    4          8
                                   No pseudopotential on this center.
    5          8
                                   No pseudopotential on this center.
    6          8
                                   No pseudopotential on this center.
 ======================================================================================================
 Ernie: Thresh=  0.10000D-02 Tol=  0.10000D-05 Strict=F.
 Ernie:  9 primitive shells out of 255 were deleted.
 There are   672 symmetry adapted cartesian basis functions of A   symmetry.
 There are   528 symmetry adapted basis functions of A   symmetry.
   528 basis functions,  1125 primitive gaussians,   672 cartesian basis functions
    78 alpha electrons       55 beta electrons
       nuclear repulsion energy      1169.7640286012 Hartrees.
 IExCor=     46039 DFT=T Ex+Corr=wB97XD ScaHFX=  1.000000
 ScaDFX=  1.000000  1.000000  1.000000  1.000000  1.000000  0.000000
 ScaDFX=  0.000000  0.000000  0.000000  0.000000  0.000000  0.000000
 IRadAn=      7 IRanWt=     -1 IRanGd=            0 ICorTp=0 IEmpDi=121
 HFx  wShort=  0.000000 wLong=  0.200000 cFull=  0.222036 cShort=  0.000000 cLong=  0.777964
 DFx  wShort=  0.200000 wLong=  0.000000 cFull=  0.000000 cShort=  1.000000 cLong=  0.000000
 NAtoms=    6 NActive=    6 NUniq=    6 SFac= 1.00D+00 NAtFMM=   60 NAOKFM=F Big=F
 Integral buffers will be    131072 words long.
 Raffenetti 2 integral format.
 Two-electron integral symmetry is turned on.
 R6Disp:  Grimme-D2 Dispersion energy=       -0.0144651521 Hartrees.
 Nuclear repulsion after empirical dispersion term =     1169.7495634491 Hartrees.
 Leave Link  301 at Thu Jun 12 14:05:13 2025, MaxMem= 12348030976 cpu:               0.2 elap:               0.1
 (Enter /home/hhratchian/gaussian//gdv-20240213-j26+/gdv/l302.exe)
 NPDir=0 NMtPBC=     1 NCelOv=     1 NCel=       1 NClECP=     1 NCelD=      1
         NCelK=      1 NCelE2=     1 NClLst=     1 CellRange=     0.0.
 One-electron integrals computed using PRISM.
 One-electron integral symmetry used in STVInt
   1 Symmetry operations used in ECPInt.
 ECPInt:  NShTT=   10440 NPrTT=   30666 LenC2=    9698 LenP2D=   22057.
 LDataN:  DoStor=T MaxTD1= 9 Len=  602
 NBasis=   528 RedAO= T EigKep=  8.77D-05  NBF=   528
 NBsUse=   528 1.00D-06 EigRej= -1.00D+00 NBFU=   528
 Precomputing XC quadrature grid using
 IXCGrd= 4 IRadAn=           7 IRanWt=          -1 IRanGd=           0 AccXCQ= 0.00D+00.
 Generated NRdTot=       0 NPtTot=      556195 NUsed=           0 NTot=          64
 NSgBfM=   671   671   671   671   671 MxSgAt=     6 MxSgA2=     6 SizInc=   0.000
 NMBTot=     6624 MaxBatPerAtom=      182 MaxMicBPerAtom=     1579 NBfPt=           238453166.
 Leave Link  302 at Thu Jun 12 14:05:15 2025, MaxMem= 12348030976 cpu:              86.6 elap:               2.3
 (Enter /home/hhratchian/gaussian//gdv-20240213-j26+/gdv/l303.exe)
 DipDrv:  MaxL=1.
 Leave Link  303 at Thu Jun 12 14:05:16 2025, MaxMem= 12348030976 cpu:               1.7 elap:               0.1
 (Enter /home/hhratchian/gaussian//gdv-20240213-j26+/gdv/l401.exe)
 ExpMin= 7.11D-03 ExpMax= 7.07D+04 ExpMxC= 1.06D+04 IAcc=3 IRadAn=         7 AccDes= 0.00D+00
 Harris functional with IExCor=10009 and IRadAn=       7 diagonalized for initial guess.
 HarFok:  IExCor=   10009 AccDes= 0.00D+00 IRadAn=         7 IDoV= 1 UseB2=F ITyADJ=14 ICtDFT=  3500011
 FoFCou: FMM=F IPFlag=           0 FMFlag=      100000 FMFlg1=           0
         NFxFlg=           0 DoJE=T BraDBF=F KetDBF=T FulRan=T
         wScrn=  0.000000 ICntrl=       500 IOpCl=  0 I1Cent=   200000004 NGrid=           0
         NMat0=    1 NMatS0=      1 NMatT0=    0 NMatD0=    1 NMtDS0=    0 NMtDT0=    0
 Petite list used in FoFCou.
 Harris En= -2527.54920739753    
 JPrj=0 DoOrth=F DoCkMO=F.
 Initial guess <Sx>=  0.0000 <Sy>=  0.0000 <Sz>= 11.5000 <S**2>= 143.7500 S= 11.5000
 Leave Link  401 at Thu Jun 12 14:05:21 2025, MaxMem= 12348030976 cpu:             237.8 elap:               5.2
 (Enter /home/hhratchian/gaussian//gdv-20240213-j26+/gdv/l502.exe)
 Integral symmetry usage will be decided dynamically.
 UHF open shell SCF:
 Using DIIS extrapolation, IDIIS=    10.
 NGot= 12348030976 LenX= 12347084932 LenY= 12346632676
 Requested convergence on RMS density matrix=1.00D-08 within  32 cycles.
 Requested convergence on MAX density matrix=1.00D-06.
 Requested convergence on             energy=1.00D-06.
 Level shift goal  0.100 maximum shift  0.100.
 No special actions if energy rises.
 Dynamic level shift is on during FON iterations.
 Fock matrices will be formed incrementally for  20 cycles.

 Cycle   1  Pass 1  IDiag  1:
 FoFJK:  IHMeth= 1 ICntrl=       0 DoSepK=T KAlg= 0 I1Cent=           0 FoldK=F
 IRaf=         1 NMat=       1 IRICut=       1 DoRegI=T DoRafI=F ISym2E= 0 IDoP0=0 IntGTp=1.
 FoFCou: FMM=F IPFlag=           0 FMFlag=      100000 FMFlg1=           0
         NFxFlg=           0 DoJE=T BraDBF=F KetDBF=F FulRan=T
         wScrn=  0.000000 ICntrl=       500 IOpCl=  0 I1Cent=           0 NGrid=           0
         NMat0=    1 NMatS0=      1 NMatT0=    0 NMatD0=    1 NMtDS0=    0 NMtDT0=    0
 Symmetry not used in FoFCou.
 E= -2516.18557902644    
 DIIS: error= 1.01D-01 at cycle   1 NSaved=   1.
 NSaved= 1 IEnMin= 1 EnMin= -2516.18557902644     IErMin= 1 ErrMin= 1.01D-01
 ErrMax= 1.01D-01  0.00D+00 EMaxC= 1.00D+00 BMatC= 1.00D+02 BMatP= 1.00D+02
 Rises=F IDIUse=1 WtCom= 1.00D+00 WtEn= 0.00D+00
 Coeff-Com:  0.100D+01
 Coeff:      0.100D+01
 Gap=     0.330 Goal=     0.100 Shift=    0.000
 T= 2222. Gap= 0.005 NK=0 IS=   62 IE=  528 IFin=   90
          NO(<0.9)=   5  NV(>0.1)=   4     76.83e < EF      1.17e >EF  Err=1.4D-14
 Gap=     0.321 Goal=     0.100 Shift=    0.000
 T= 2222. Gap= 0.003 NK=0 IS=   55 IE=  528 IFin=   57
          NO(<0.9)=   1  NV(>0.1)=   1     54.53e < EF      0.47e >EF  Err=0.0D+00
 GapD=    0.321 DampG=1.000 DampE=0.125 DampFc=0.1250 IDamp=-1.
 Damping current iteration by 1.25D-01
 RMSDP=5.50D+00 MaxDP=1.81D+03              OVMax= 1.00D+00

 Cycle   2  Pass 1  IDiag  1:
 RMSU=  6.86D-01    CP:  3.00D+00
 E= -2518.94142526571     Delta-E=       -2.755846239267 Rises=F Damp=T AM=F Ri=F Fa=F
 DIIS: error= 4.24D-02 at cycle   2 NSaved=   2.
 NSaved= 2 IEnMin= 2 EnMin= -2518.94142526571     IErMin= 2 ErrMin= 4.24D-02
 ErrMax= 4.24D-02  0.00D+00 EMaxC= 1.00D+00 BMatC= 2.07D+01 BMatP= 1.00D+02
 Rises=F IDIUse=1 WtCom= 1.00D+00 WtEn= 0.00D+00
 Coeff-Com: -0.687D+00 0.169D+01
 Coeff:     -0.687D+00 0.169D+01
 Gap=     0.016 Goal=     0.100 Shift=    0.084
 T= 2093. Gap= 0.237 NK=0 IS=   79 IE=  528 IFin=   78
          NO(<0.9)=   0  NV(>0.1)=   0     78.00e < EF      0.00e >EF  Err=0.0D+00
 Gap=    -0.000 Goal=     0.100 Shift=    0.100
 T= 2093. Gap= 0.008 NK=0 IS=   51 IE=  528 IFin=   57
          NO(<0.9)=   1  NV(>0.1)=   1     54.61e < EF      0.39e >EF  Err=1.4D-14
 GapD=   -0.000 DampG=0.250 DampE=0.500 DampFc=0.1250 IDamp=-1.
 Damping current iteration by 1.25D-01
 RMSDP=6.89D-01 MaxDP=2.27D+02 DE=-2.76D+00 OVMax= 9.99D-01

 Cycle   3  Pass 1  IDiag  1:
 RMSU=  4.67D-03    CP:  3.00D+00  8.75D-01
 E= -2518.44902578187     Delta-E=        0.492399483844 Rises=F Damp=T AM=T Ri=T Fa=F
 DIIS: error= 5.44D-02 at cycle   3 NSaved=   3.
 NSaved= 3 IEnMin= 2 EnMin= -2518.94142526571     IErMin= 2 ErrMin= 4.24D-02
 ErrMax= 5.44D-02  0.00D+00 EMaxC= 1.00D+00 BMatC= 3.21D+01 BMatP= 2.07D+01
 Rises=T IDIUse=1 WtCom= 1.00D+00 WtEn= 0.00D+00
 Coeff-Com: -0.866D+00 0.113D+01 0.740D+00
 Coeff:     -0.866D+00 0.113D+01 0.740D+00
 Gap=     0.370 Goal=   None    Shift=    0.000
 T= 1967. Gap= 0.064 NK=0 IS=   77 IE=  528 IFin=   82
          NO(<0.9)=   0  NV(>0.1)=   0     77.99e < EF      0.01e >EF  Err=0.0D+00
 Gap=     0.012 Goal=   None    Shift=    0.000
 T= 1967. Gap= 0.100 NK=0 IS=   54 IE=  528 IFin=   60
          NO(<0.9)=   0  NV(>0.1)=   0     55.00e < EF      0.00e >EF  Err=0.0D+00
 GapD=    0.012 DampG=0.250 DampE=0.500 DampFc=0.1250 IDamp=-1.
 Damping current iteration by 1.25D-01
 RMSDP=6.02D-01 MaxDP=1.99D+02 DE= 4.92D-01 OVMax= 9.99D-01

 Cycle   4  Pass 1  IDiag  1:
 RMSU=  7.15D-04    CP:  2.89D+00  7.65D-01  1.43D+00
 E= -2518.95591893365     Delta-E=       -0.506893151778 Rises=F Damp=T AM=F Ri=F Fa=F
 DIIS: error= 5.00D-02 at cycle   4 NSaved=   4.
 NSaved= 4 IEnMin= 4 EnMin= -2518.95591893365     IErMin= 2 ErrMin= 4.24D-02
 ErrMax= 5.00D-02  0.00D+00 EMaxC= 1.00D+00 BMatC= 2.73D+01 BMatP= 2.07D+01
 Rises=F IDIUse=1 WtCom= 1.00D+00 WtEn= 0.00D+00
 Coeff-Com: -0.735D+00 0.868D+00-0.174D+01 0.261D+01
 Coeff:     -0.735D+00 0.868D+00-0.174D+01 0.261D+01
 Gap=     0.187 Goal=     0.100 Shift=    0.000
 T= 1790. Gap= 0.089 NK=0 IS=   78 IE=  528 IFin=   83
          NO(<0.9)=   0  NV(>0.1)=   0     78.00e < EF      0.00e >EF  Err=1.4D-14
 Gap=     0.226 Goal=     0.100 Shift=    0.000
 T= 1790. Gap= 0.051 NK=0 IS=   55 IE=  528 IFin=   62
          NO(<0.9)=   0  NV(>0.1)=   0     54.99e < EF      0.01e >EF  Err=0.0D+00
 GapD=    0.187 DampG=1.000 DampE=0.500 DampFc=0.5000 IDamp=-1.
 Damping current iteration by 5.00D-01
 RMSDP=5.27D-01 MaxDP=1.74D+02 DE=-5.07D-01 OVMax= 7.30D-01

 Cycle   5  Pass 1  IDiag  1:
 RMSU=  2.05D-03    CP:  1.91D+00  3.83D-01  7.35D-01  3.00D+00
 E= -2520.85015147963     Delta-E=       -1.894232545982 Rises=F Damp=T AM=F Ri=F Fa=F
 DIIS: error= 3.93D-02 at cycle   5 NSaved=   5.
 NSaved= 5 IEnMin= 5 EnMin= -2520.85015147963     IErMin= 5 ErrMin= 3.93D-02
 ErrMax= 3.93D-02  0.00D+00 EMaxC= 1.00D+00 BMatC= 1.27D+01 BMatP= 2.07D+01
 Rises=F IDIUse=1 WtCom= 1.00D+00 WtEn= 0.00D+00
 Coeff-Com: -0.618D+00 0.646D+00-0.161D+01 0.211D+01 0.473D+00
 Coeff:     -0.618D+00 0.646D+00-0.161D+01 0.211D+01 0.473D+00
 Gap=     0.190 Goal=     0.100 Shift=    0.000
 T= 1777. Gap= 0.168 NK=0 IS=   79 IE=  528 IFin=   78
          NO(<0.9)=   0  NV(>0.1)=   0     78.00e < EF      0.00e >EF  Err=0.0D+00
 Gap=     0.074 Goal=     0.100 Shift=    0.026
 T= 1777. Gap= 0.103 NK=0 IS=   55 IE=  528 IFin=   58
          NO(<0.9)=   0  NV(>0.1)=   0     55.00e < EF      0.00e >EF  Err=0.0D+00
 GapD=    0.074 DampG=0.500 DampE=0.500 DampFc=0.2500 IDamp=-1.
 Damping current iteration by 2.50D-01
 RMSDP=2.64D-01 MaxDP=8.71D+01 DE=-1.89D+00 OVMax= 3.94D-01

 Cycle   6  Pass 1  IDiag  1:
 RMSU=  4.57D-04    CP:  1.67D+00  2.87D-01  5.61D-01  3.00D+00  1.17D+00
 E= -2521.51672539245     Delta-E=       -0.666573912820 Rises=F Damp=T AM=F Ri=F Fa=F
 DIIS: error= 3.07D-02 at cycle   6 NSaved=   6.
 NSaved= 6 IEnMin= 6 EnMin= -2521.51672539245     IErMin= 6 ErrMin= 3.07D-02
 ErrMax= 3.07D-02  0.00D+00 EMaxC= 1.00D+00 BMatC= 7.30D+00 BMatP= 1.27D+01
 Rises=F IDIUse=1 WtCom= 1.00D+00 WtEn= 0.00D+00
 Coeff-Com: -0.352D+00 0.281D+00 0.331D-02 0.245D+00-0.133D+01 0.216D+01
 Coeff:     -0.352D+00 0.281D+00 0.331D-02 0.245D+00-0.133D+01 0.216D+01
 Gap=     0.169 Goal=     0.100 Shift=    0.000
 T= 1500. Gap= 0.143 NK=0 IS=   79 IE=  528 IFin=   78
          NO(<0.9)=   0  NV(>0.1)=   0     78.00e < EF      0.00e >EF  Err=0.0D+00
 Gap=     0.107 Goal=     0.100 Shift=    0.000
 T= 1500. Gap= 0.026 NK=0 IS=   55 IE=  528 IFin=   60
          NO(<0.9)=   0  NV(>0.1)=   0     54.92e < EF      0.08e >EF  Err=0.0D+00
 GapD=    0.107 DampG=1.000 DampE=0.500 DampFc=0.5000 IDamp=-1.
 Damping current iteration by 5.00D-01
 RMSDP=1.97D-01 MaxDP=6.53D+01 DE=-6.67D-01 OVMax= 1.48D-01

 Cycle   7  Pass 1  IDiag  1:
 RMSU=  3.96D-03    CP:  1.30D+00  1.43D-01  2.99D-01  3.00D+00  1.38D+00
                    CP:  3.00D+00
 E= -2522.54183972479     Delta-E=       -1.025114332343 Rises=F Damp=T AM=F Ri=F Fa=F
 DIIS: error= 1.36D-02 at cycle   7 NSaved=   7.
 NSaved= 7 IEnMin= 7 EnMin= -2522.54183972479     IErMin= 7 ErrMin= 1.36D-02
 ErrMax= 1.36D-02  0.00D+00 EMaxC= 1.00D+00 BMatC= 1.44D+00 BMatP= 7.30D+00
 Rises=F IDIUse=1 WtCom= 1.00D+00 WtEn= 0.00D+00
 Coeff-Com: -0.218D+00 0.496D-01 0.289D+00-0.694D-01-0.148D+00 0.324D-01
 Coeff-Com:  0.106D+01
 Coeff:     -0.218D+00 0.496D-01 0.289D+00-0.694D-01-0.148D+00 0.324D-01
 Coeff:      0.106D+01
 Gap=     0.112 Goal=     0.100 Shift=    0.000
 T= 1200. Gap= 0.111 NK=0 IS=   79 IE=  528 IFin=   78
          NO(<0.9)=   0  NV(>0.1)=   0     78.00e < EF      0.00e >EF  Err=0.0D+00
 Gap=    -0.038 Goal=     0.100 Shift=    0.100
 T= 1200. Gap= 0.047 NK=0 IS=   55 IE=  528 IFin=   59
          NO(<0.9)=   0  NV(>0.1)=   0     55.00e < EF      0.00e >EF  Err=7.1D-15
 GapD=   -0.038 DampG=0.250 DampE=0.500 DampFc=0.1250 IDamp=-1.
 Damping current iteration by 1.25D-01
 RMSDP=9.92D-02 MaxDP=3.26D+01 DE=-1.03D+00 OVMax= 1.95D-01

 Cycle   8  Pass 1  IDiag  1:
 RMSU=  3.38D-04    CP:  1.26D+00  1.25D-01  2.65D-01  3.00D+00  1.36D+00
                    CP:  3.00D+00  9.06D-01
 E= -2522.66263259695     Delta-E=       -0.120792872156 Rises=F Damp=T AM=F Ri=F Fa=F
 DIIS: error= 1.35D-02 at cycle   8 NSaved=   8.
 NSaved= 8 IEnMin= 8 EnMin= -2522.66263259695     IErMin= 8 ErrMin= 1.35D-02
 ErrMax= 1.35D-02  0.00D+00 EMaxC= 1.00D+00 BMatC= 1.05D+00 BMatP= 1.44D+00
 Rises=F IDIUse=1 WtCom= 1.00D+00 WtEn= 0.00D+00
 Coeff-Com: -0.215D+00-0.940D-04 0.143D+00 0.133D+00 0.131D+00-0.166D+00
 Coeff-Com: -0.789D+00 0.176D+01
 Coeff:     -0.215D+00-0.940D-04 0.143D+00 0.133D+00 0.131D+00-0.166D+00
 Coeff:     -0.789D+00 0.176D+01
 Gap=     0.106 Goal=     0.100 Shift=    0.000
 T=  900. Gap= 0.107 NK=0 IS=   79 IE=  528 IFin=   78
          NO(<0.9)=   0  NV(>0.1)=   0     78.00e < EF      0.00e >EF  Err=0.0D+00
 Gap=    -0.051 Goal=     0.100 Shift=    0.100
 T=  900. Gap= 0.052 NK=0 IS=   55 IE=  528 IFin=   57
          NO(<0.9)=   0  NV(>0.1)=   0     55.00e < EF      0.00e >EF  Err=7.1D-15
 GapD=   -0.051 DampG=0.250 DampE=0.500 DampFc=0.1250 IDamp=-1.
 Damping current iteration by 1.25D-01
 RMSDP=8.82D-02 MaxDP=2.85D+01 DE=-1.21D-01 OVMax= 2.90D-01

 Cycle   9  Pass 1  IDiag  1:
 RMSU=  2.05D-03    CP:  1.22D+00  1.10D-01  2.37D-01  3.00D+00  1.45D+00
                    CP:  3.00D+00  1.01D+00  3.00D+00
 E= -2522.76871091762     Delta-E=       -0.106078320674 Rises=F Damp=T AM=F Ri=F Fa=F
 DIIS: error= 1.40D-02 at cycle   9 NSaved=   9.
 NSaved= 9 IEnMin= 9 EnMin= -2522.76871091762     IErMin= 8 ErrMin= 1.35D-02
 ErrMax= 1.40D-02  0.00D+00 EMaxC= 1.00D+00 BMatC= 7.97D-01 BMatP= 1.05D+00
 Rises=F IDIUse=1 WtCom= 1.00D+00 WtEn= 0.00D+00
 Coeff-Com: -0.214D+00 0.110D-01 0.181D+00 0.733D-01 0.170D+00-0.257D+00
 Coeff-Com: -0.145D+01 0.351D+01-0.102D+01
 Coeff:     -0.214D+00 0.110D-01 0.181D+00 0.733D-01 0.170D+00-0.257D+00
 Coeff:     -0.145D+01 0.351D+01-0.102D+01
 Gap=     0.106 Goal=     0.100 Shift=    0.000
 T=  600. Gap= 0.106 NK=0 IS=   79 IE=  528 IFin=   78
          NO(<0.9)=   0  NV(>0.1)=   0     78.00e < EF      0.00e >EF  Err=0.0D+00
 Gap=    -0.045 Goal=     0.100 Shift=    0.100
 T=  600. Gap= 0.058 NK=0 IS=   56 IE=  528 IFin=   55
          NO(<0.9)=   0  NV(>0.1)=   0     55.00e < EF      0.00e >EF  Err=0.0D+00
 GapD=   -0.045 DampG=0.250 DampE=0.500 DampFc=0.1250 IDamp=-1.
 Damping current iteration by 1.25D-01
 RMSDP=3.61D-01 MaxDP=1.03D+02 DE=-1.06D-01 OVMax= 4.16D-01

 Cycle  10  Pass 1  IDiag  1:
 RMSU=  3.84D-02    CP:  1.19D+00  9.88D-02  2.31D-01  3.00D+00  3.00D+00
                    CP:  3.00D+00  3.00D+00  3.00D+00  3.00D+00
 E= -2522.86384407963     Delta-E=       -0.095133162009 Rises=F Damp=T AM=F Ri=F Fa=F
 DIIS: error= 1.43D-02 at cycle  10 NSaved=  10.
 NSaved=10 IEnMin=10 EnMin= -2522.86384407963     IErMin= 8 ErrMin= 1.35D-02
 ErrMax= 1.43D-02  0.00D+00 EMaxC= 1.00D+00 BMatC= 6.54D-01 BMatP= 7.97D-01
 Rises=F IDIUse=1 WtCom= 1.00D+00 WtEn= 0.00D+00
 Coeff-Com: -0.192D+00 0.887D-02 0.146D+00 0.829D-01 0.107D+00-0.195D+00
 Coeff-Com: -0.277D+01 0.113D+02-0.128D+02 0.525D+01
 Coeff:     -0.192D+00 0.887D-02 0.146D+00 0.829D-01 0.107D+00-0.195D+00
 Coeff:     -0.277D+01 0.113D+02-0.128D+02 0.525D+01
 Gap=     0.128 Goal=     0.100 Shift=    0.000
 T=  300. Gap= 0.125 NK=0 IS=   79 IE=  528 IFin=   78
          NO(<0.9)=   0  NV(>0.1)=   0     78.00e < EF      0.00e >EF  Err=0.0D+00
 Gap=    -0.035 Goal=     0.100 Shift=    0.100
 T=  300. Gap= 0.121 NK=0 IS=   56 IE=  528 IFin=   55
          NO(<0.9)=   0  NV(>0.1)=   0     55.00e < EF      0.00e >EF  Err=0.0D+00
 GapD=   -0.035 DampG=0.250 DampE=0.500 DampFc=0.1250 IDamp=-1.
 Damping current iteration by 1.25D-01
 RMSDP=1.73D+00 MaxDP=5.47D+02 DE=-9.51D-02 OVMax= 6.89D-01

 Cycle  11  Pass 1  IDiag  1:
 RMSU=  1.49D-01    CP:  1.21D+00  1.00D-01  3.15D-01  3.00D+00  3.00D+00
                    CP:  3.00D+00  3.00D+00  3.00D+00  3.00D+00  3.00D+00
 E= -2522.93761838882     Delta-E=       -0.073774309189 Rises=F Damp=T AM=F Ri=F Fa=F
 DIIS: error= 1.44D-02 at cycle  11 NSaved=  11.
 NSaved=11 IEnMin=11 EnMin= -2522.93761838882     IErMin= 8 ErrMin= 1.35D-02
 ErrMax= 1.44D-02  0.00D+00 EMaxC= 1.00D+00 BMatC= 6.23D-01 BMatP= 6.54D-01
 Rises=F IDIUse=1 WtCom= 1.00D+00 WtEn= 0.00D+00
 Coeff-Com: -0.192D+00 0.112D-01 0.153D+00 0.728D-01 0.125D+00-0.230D+00
 Coeff-Com: -0.304D+01 0.125D+02-0.150D+02 0.735D+01-0.807D+00
 Coeff:     -0.192D+00 0.112D-01 0.153D+00 0.728D-01 0.125D+00-0.230D+00
 Coeff:     -0.304D+01 0.125D+02-0.150D+02 0.735D+01-0.807D+00
 Gap=     0.124 Goal=     0.100 Shift=    0.000
 Gap=     0.059 Goal=     0.100 Shift=    0.041
 RMSDP=1.65D+00 MaxDP=5.23D+02 DE=-7.38D-02 OVMax= 1.81D-01

 Cycle  12  Pass 1  IDiag  1:
 RMSU=  1.35D+00    CP:  1.39D+00  1.20D-01  9.80D-01  3.00D+00  3.00D+00
                    CP:  3.00D+00  3.00D+00  3.00D+00  3.00D+00  3.00D+00
                    CP:  3.00D+00
 E= -2523.29483226950     Delta-E=       -0.357213880679 Rises=F Damp=F AM=F Ri=F Fa=F
 DIIS: error= 2.45D-02 at cycle  12 NSaved=  12.
 NSaved=12 IEnMin=12 EnMin= -2523.29483226950     IErMin= 8 ErrMin= 1.35D-02
 ErrMax= 2.45D-02  0.00D+00 EMaxC= 1.00D+00 BMatC= 3.71D+00 BMatP= 6.23D-01
 Rises=F IDIUse=1 WtCom= 1.00D+00 WtEn= 0.00D+00
 Coeff-Com: -0.191D+00 0.766D-02 0.125D+00 0.108D+00 0.150D+00-0.242D+00
 Coeff-Com: -0.292D+01 0.119D+02-0.140D+02 0.565D+01 0.560D+00-0.132D+00
 Coeff:     -0.191D+00 0.766D-02 0.125D+00 0.108D+00 0.150D+00-0.242D+00
 Coeff:     -0.292D+01 0.119D+02-0.140D+02 0.565D+01 0.560D+00-0.132D+00
 Gap=     0.121 Goal=     0.100 Shift=    0.000
 Gap=     0.070 Goal=     0.100 Shift=    0.030
 RMSDP=4.67D-02 MaxDP=9.12D+00 DE=-3.57D-01 OVMax= 3.72D-02

 Cycle  13  Pass 1  IDiag  1:
 RMSU=  4.60D-02    CP:  1.39D+00  1.20D-01  9.90D-01  3.00D+00  3.00D+00
                    CP:  3.00D+00  3.00D+00  3.00D+00  3.00D+00  3.00D+00
                    CP:  3.00D+00  1.01D+00
 E= -2523.29001119999     Delta-E=        0.004821069503 Rises=F Damp=F AM=T Ri=T Fa=F
 DIIS: error= 2.47D-02 at cycle  13 NSaved=  13.
 NSaved=13 IEnMin=12 EnMin= -2523.29483226950     IErMin= 8 ErrMin= 1.35D-02
 ErrMax= 2.47D-02  0.00D+00 EMaxC= 1.00D+00 BMatC= 3.75D+00 BMatP= 6.23D-01
 Rises=T IDIUse=1 WtCom= 1.00D+00 WtEn= 0.00D+00
 Coeff-Com: -0.194D+00 0.164D-01 0.116D+00 0.115D+00 0.110D+00-0.198D+00
 Coeff-Com: -0.274D+01 0.113D+02-0.134D+02 0.590D+01 0.973D-01 0.246D+01
 Coeff-Com: -0.255D+01
 Coeff:     -0.194D+00 0.164D-01 0.116D+00 0.115D+00 0.110D+00-0.198D+00
 Coeff:     -0.274D+01 0.113D+02-0.134D+02 0.590D+01 0.973D-01 0.246D+01
 Coeff:     -0.255D+01
 Gap=     0.124 Goal=   None    Shift=    0.000
 Gap=     0.059 Goal=   None    Shift=    0.000
 RMSDP=1.78D-01 MaxDP=4.04D+01 DE= 4.82D-03 OVMax= 1.17D-01

 Cycle  14  Pass 1  IDiag  1:
 RMSU=  6.62D-02    CP:  1.38D+00  1.16D-01  9.45D-01  3.00D+00  3.00D+00
                    CP:  3.00D+00  3.00D+00  3.00D+00  3.00D+00  3.00D+00
                    CP:  3.00D+00  9.56D-01 -2.28D+00
 E= -2523.30710094412     Delta-E=       -0.017089744123 Rises=F Damp=F AM=F Ri=F Fa=F
 DIIS: error= 2.45D-02 at cycle  14 NSaved=  14.
 NSaved=14 IEnMin=14 EnMin= -2523.30710094412     IErMin= 8 ErrMin= 1.35D-02
 ErrMax= 2.45D-02  0.00D+00 EMaxC= 1.00D+00 BMatC= 3.67D+00 BMatP= 6.23D-01
 Rises=F IDIUse=1 WtCom= 1.00D+00 WtEn= 0.00D+00
 Coeff-Com: -0.199D+00 0.154D-01 0.136D+00 0.108D+00 0.111D-01-0.822D-01
 Coeff-Com: -0.254D+01 0.111D+02-0.138D+02 0.681D+01-0.470D+00 0.478D+01
 Coeff-Com: -0.294D+01-0.190D+01
 Coeff:     -0.199D+00 0.154D-01 0.136D+00 0.108D+00 0.111D-01-0.822D-01
 Coeff:     -0.254D+01 0.111D+02-0.138D+02 0.681D+01-0.470D+00 0.478D+01
 Coeff:     -0.294D+01-0.190D+01
 Gap=     0.126 Goal=     0.100 Shift=    0.000
 Gap=     0.050 Goal=     0.100 Shift=    0.050
 RMSDP=1.43D-01 MaxDP=3.65D+01 DE=-1.71D-02 OVMax= 5.69D-02

 Cycle  15  Pass 1  IDiag  1:
 RMSU=  3.80D-02    CP:  1.39D+00  1.19D-01  9.73D-01  3.00D+00  3.00D+00
                    CP:  3.00D+00  3.00D+00  3.00D+00  3.00D+00  3.00D+00
                    CP:  3.00D+00  9.86D-01  1.35D-01 -6.19D-02
 E= -2523.28699721845     Delta-E=        0.020103725670 Rises=F Damp=F AM=T Ri=T Fa=F
 DIIS: error= 2.47D-02 at cycle  15 NSaved=  15.
 NSaved=15 IEnMin=14 EnMin= -2523.30710094412     IErMin= 8 ErrMin= 1.35D-02
 ErrMax= 2.47D-02  0.00D+00 EMaxC= 1.00D+00 BMatC= 3.80D+00 BMatP= 6.23D-01
 Rises=T IDIUse=1 WtCom= 1.00D+00 WtEn= 0.00D+00
 Coeff-Com: -0.224D+00 0.552D-01-0.531D-02 0.261D+00 0.400D-01-0.541D-01
 Coeff-Com: -0.171D+01 0.849D+01-0.107D+02 0.419D+01 0.759D+00 0.156D+01
 Coeff-Com: -0.542D+00 0.423D+00-0.155D+01
 Coeff:     -0.224D+00 0.552D-01-0.531D-02 0.261D+00 0.400D-01-0.541D-01
 Coeff:     -0.171D+01 0.849D+01-0.107D+02 0.419D+01 0.759D+00 0.156D+01
 Coeff:     -0.542D+00 0.423D+00-0.155D+01
 Gap=     0.131 Goal=   None    Shift=    0.000
 Gap=     0.040 Goal=   None    Shift=    0.000
 RMSDP=3.06D-01 MaxDP=6.50D+01 DE= 2.01D-02 OVMax= 1.63D-01

 Cycle  16  Pass 1  IDiag  1:
 RMSU=  6.92D-02    CP:  1.37D+00  1.16D-01  9.25D-01  3.00D+00  3.00D+00
                    CP:  3.00D+00  3.00D+00  3.00D+00  3.00D+00  3.00D+00
                    CP:  3.00D+00  9.17D-01 -3.00D+00  3.00D+00  1.10D+00
 E= -2523.32928877107     Delta-E=       -0.042291552623 Rises=F Damp=F AM=F Ri=F Fa=F
 DIIS: error= 2.47D-02 at cycle  16 NSaved=  16.
 NSaved=16 IEnMin=16 EnMin= -2523.32928877107     IErMin= 8 ErrMin= 1.35D-02
 ErrMax= 2.47D-02  0.00D+00 EMaxC= 1.00D+00 BMatC= 3.59D+00 BMatP= 6.23D-01
 Rises=F IDIUse=1 WtCom= 1.00D+00 WtEn= 0.00D+00
 Coeff-Com: -0.199D+00 0.333D-02 0.210D-01 0.224D+00 0.173D+00-0.183D+00
 Coeff-Com: -0.257D+01 0.949D+01-0.101D+02 0.154D+01 0.293D+01-0.526D+01
 Coeff-Com:  0.109D+01 0.364D+01 0.204D+01-0.189D+01
 Coeff:     -0.199D+00 0.333D-02 0.210D-01 0.224D+00 0.173D+00-0.183D+00
 Coeff:     -0.257D+01 0.949D+01-0.101D+02 0.154D+01 0.293D+01-0.526D+01
 Coeff:      0.109D+01 0.364D+01 0.204D+01-0.189D+01
 Gap=     0.119 Goal=     0.100 Shift=    0.000
 Gap=     0.069 Goal=     0.100 Shift=    0.031
 RMSDP=2.28D-01 MaxDP=4.27D+01 DE=-4.23D-02 OVMax= 1.89D-01

 Cycle  17  Pass 1  IDiag  1:
 RMSU=  2.53D-02    CP:  1.38D+00  1.18D-01  9.62D-01  3.00D+00  3.00D+00
                    CP:  3.00D+00  3.00D+00  3.00D+00  3.00D+00  3.00D+00
                    CP:  3.00D+00  9.69D-01 -5.39D-01  1.33D+00 -1.49D-01
                    CP:  3.10D-03
 E= -2523.25170986888     Delta-E=        0.077578902195 Rises=F Damp=F AM=T Ri=T Fa=F
 DIIS: error= 2.47D-02 at cycle  17 NSaved=  17.
 NSaved=17 IEnMin=16 EnMin= -2523.32928877107     IErMin= 8 ErrMin= 1.35D-02
 ErrMax= 2.47D-02  0.00D+00 EMaxC= 1.00D+00 BMatC= 4.04D+00 BMatP= 6.23D-01
 Rises=T IDIUse=1 WtCom= 1.00D+00 WtEn= 0.00D+00
 Coeff-Com: -0.188D+00-0.522D-02 0.702D-01 0.164D+00 0.122D+00-0.152D+00
 Coeff-Com: -0.224D+01 0.898D+01-0.963D+01 0.109D+01 0.320D+01-0.539D+01
 Coeff-Com:  0.924D+00 0.415D+01 0.175D+01-0.211D+01 0.266D+00
 Coeff:     -0.188D+00-0.522D-02 0.702D-01 0.164D+00 0.122D+00-0.152D+00
 Coeff:     -0.224D+01 0.898D+01-0.963D+01 0.109D+01 0.320D+01-0.539D+01
 Coeff:      0.924D+00 0.415D+01 0.175D+01-0.211D+01 0.266D+00
 Gap=     0.111 Goal=   None    Shift=    0.000
 Gap=     0.069 Goal=   None    Shift=    0.000
 RMSDP=9.31D-02 MaxDP=2.17D+01 DE= 7.76D-02 OVMax= 5.04D-02

 Cycle  18  Pass 1  IDiag  1:
 RMSU=  1.02D-02    CP:  1.38D+00  1.19D-01  9.73D-01  3.00D+00  3.00D+00
                    CP:  3.00D+00  3.00D+00  3.00D+00  3.00D+00  3.00D+00
                    CP:  3.00D+00  9.70D-01  1.27D+00  7.69D-01  2.67D-01
                    CP: -2.74D-02  1.16D+00
 E= -2523.25791913966     Delta-E=       -0.006209270783 Rises=F Damp=F AM=T Ri=T Fa=T
 DIIS: error= 2.44D-02 at cycle  18 NSaved=  18.
 NSaved=18 IEnMin=16 EnMin= -2523.32928877107     IErMin= 8 ErrMin= 1.35D-02
 ErrMax= 2.44D-02  0.00D+00 EMaxC= 1.00D+00 BMatC= 3.97D+00 BMatP= 6.23D-01
 Rises=T IDIUse=1 WtCom= 1.00D+00 WtEn= 0.00D+00
 Coeff-Com: -0.173D+00 0.133D-01 0.105D-01 0.177D+00 0.159D+00-0.186D+00
 Coeff-Com: -0.258D+01 0.880D+01-0.857D+01 0.450D+00 0.331D+01-0.266D+01
 Coeff-Com: -0.123D+01 0.344D+01 0.125D+01-0.175D+01-0.371D+01 0.425D+01
 Coeff:     -0.173D+00 0.133D-01 0.105D-01 0.177D+00 0.159D+00-0.186D+00
 Coeff:     -0.258D+01 0.880D+01-0.857D+01 0.450D+00 0.331D+01-0.266D+01
 Coeff:     -0.123D+01 0.344D+01 0.125D+01-0.175D+01-0.371D+01 0.425D+01
 Gap=     0.103 Goal=   None    Shift=    0.000
 Gap=     0.075 Goal=   None    Shift=    0.000
 RMSDP=3.02D-01 MaxDP=7.03D+01 DE=-6.21D-03 OVMax= 1.68D-01

 Cycle  19  Pass 1  IDiag  1:
 RMSU=  7.96D-02    CP:  1.36D+00  1.17D-01  9.75D-01  3.00D+00  3.00D+00
                    CP:  3.00D+00  3.00D+00  3.00D+00  3.00D+00  3.00D+00
                    CP:  3.00D+00  9.03D-01  3.00D+00 -1.72D+00  1.67D+00
                    CP: -1.89D+00  2.33D+00  1.63D-01
 E= -2523.32989781854     Delta-E=       -0.071978678880 Rises=F Damp=F AM=F Ri=F Fa=F
 DIIS: error= 2.30D-02 at cycle  19 NSaved=  19.
 NSaved=19 IEnMin=19 EnMin= -2523.32989781854     IErMin= 8 ErrMin= 1.35D-02
 ErrMax= 2.30D-02  0.00D+00 EMaxC= 1.00D+00 BMatC= 3.34D+00 BMatP= 6.23D-01
 Rises=F IDIUse=1 WtCom= 1.00D+00 WtEn= 0.00D+00
 Coeff-Com: -0.175D+00 0.178D-01-0.157D-02 0.188D+00 0.168D+00-0.193D+00
 Coeff-Com: -0.256D+01 0.873D+01-0.852D+01 0.485D+00 0.328D+01-0.293D+01
 Coeff-Com: -0.105D+01 0.342D+01 0.144D+01-0.179D+01-0.346D+01 0.384D+01
 Coeff-Com:  0.117D+00
 Coeff:     -0.175D+00 0.178D-01-0.157D-02 0.188D+00 0.168D+00-0.193D+00
 Coeff:     -0.256D+01 0.873D+01-0.852D+01 0.485D+00 0.328D+01-0.293D+01
 Coeff:     -0.105D+01 0.342D+01 0.144D+01-0.179D+01-0.346D+01 0.384D+01
 Coeff:      0.117D+00
 Gap=     0.104 Goal=     0.100 Shift=    0.000
 Gap=     0.078 Goal=     0.100 Shift=    0.022
 RMSDP=2.40D-02 MaxDP=5.95D+00 DE=-7.20D-02 OVMax= 1.04D-02

 Cycle  20  Pass 1  IDiag  1:
 RMSU=  1.59D-03    CP:  1.36D+00  1.17D-01  9.73D-01  3.00D+00  3.00D+00
                    CP:  3.00D+00  3.00D+00  3.00D+00  3.00D+00  3.00D+00
                    CP:  3.00D+00  8.94D-01  3.00D+00 -1.89D+00  1.84D+00
                    CP: -2.09D+00  2.36D+00 -1.89D-02  1.11D+00
 E= -2523.33714894196     Delta-E=       -0.007251123425 Rises=F Damp=F AM=F Ri=F Fa=F
 DIIS: error= 2.29D-02 at cycle  20 NSaved=  20.
 NSaved=20 IEnMin=20 EnMin= -2523.33714894196     IErMin= 8 ErrMin= 1.35D-02
 ErrMax= 2.29D-02  0.00D+00 EMaxC= 1.00D+00 BMatC= 3.29D+00 BMatP= 6.23D-01
 Rises=F IDIUse=1 WtCom= 1.00D+00 WtEn= 0.00D+00
 Coeff-Com: -0.174D+00 0.163D-01 0.225D-04 0.187D+00 0.159D+00-0.179D+00
 Coeff-Com: -0.258D+01 0.876D+01-0.858D+01 0.530D+00 0.327D+01-0.273D+01
 Coeff-Com: -0.116D+01 0.332D+01 0.139D+01-0.173D+01-0.365D+01 0.401D+01
 Coeff-Com:  0.802D+00-0.679D+00
 Coeff:     -0.174D+00 0.163D-01 0.225D-04 0.187D+00 0.159D+00-0.179D+00
 Coeff:     -0.258D+01 0.876D+01-0.858D+01 0.530D+00 0.327D+01-0.273D+01
 Coeff:     -0.116D+01 0.332D+01 0.139D+01-0.173D+01-0.365D+01 0.401D+01
 Coeff:      0.802D+00-0.679D+00
 Gap=     0.104 Goal=     0.100 Shift=    0.000
 Gap=     0.078 Goal=     0.100 Shift=    0.022
 RMSDP=2.28D-03 MaxDP=5.69D-01 DE=-7.25D-03 OVMax= 3.27D-03

 Cycle  21  Pass 1  IDiag  1:
 Restarting incremental Fock formation.
 E= -2523.33481906356     Delta-E=        0.002329878404 Rises=F Damp=F AM=T Ri=T Fa=F
 DIIS: error= 2.29D-02 at cycle  21 NSaved=  20.
 NSaved=20 IEnMin=19 EnMin= -2523.33714894196     IErMin= 7 ErrMin= 1.35D-02
 ErrMax= 2.29D-02  0.00D+00 EMaxC= 1.00D+00 BMatC= 3.30D+00 BMatP= 6.23D-01
 Rises=T IDIUse=1 WtCom= 1.00D+00 WtEn= 0.00D+00
 Coeff-Com: -0.192D+00 0.609D+00-0.577D+00-0.705D-01-0.206D+00-0.239D+01
 Coeff-Com:  0.112D+02-0.116D+02-0.181D+00 0.504D+01-0.256D+01-0.341D+01
 Coeff-Com:  0.462D+01 0.185D+01-0.269D+01-0.432D+01 0.557D+01 0.426D+01
 Coeff-Com: -0.122D+02 0.826D+01
 Coeff:     -0.192D+00 0.609D+00-0.577D+00-0.705D-01-0.206D+00-0.239D+01
 Coeff:      0.112D+02-0.116D+02-0.181D+00 0.504D+01-0.256D+01-0.341D+01
 Coeff:      0.462D+01 0.185D+01-0.269D+01-0.432D+01 0.557D+01 0.426D+01
 Coeff:     -0.122D+02 0.826D+01
 Gap=     0.061 Goal=   None    Shift=    0.000
 Gap=     0.111 Goal=   None    Shift=    0.000
 RMSDP=1.31D-01 MaxDP=2.57D+01 DE= 2.33D-03 OVMax= 1.61D-01

 Cycle  22  Pass 1  IDiag  1:
 RMSU=  1.31D-01    CP:  9.96D-01
 E= -2523.29641956686     Delta-E=        0.038399496695 Rises=F Damp=F AM=T Ri=T Fa=F
 DIIS: error= 2.31D-02 at cycle  22 NSaved=  20.
 NSaved=20 IEnMin=18 EnMin= -2523.33714894196     IErMin= 6 ErrMin= 1.35D-02
 ErrMax= 2.31D-02  0.00D+00 EMaxC= 1.00D+00 BMatC= 3.35D+00 BMatP= 6.23D-01
 Rises=T IDIUse=1 WtCom= 1.00D+00 WtEn= 0.00D+00
 Coeff-Com: -0.181D+00 0.579D-01 0.239D+00-0.280D+00-0.352D+01 0.938D+01
 Coeff-Com: -0.614D+01-0.695D+01 0.936D+01-0.568D+01 0.332D+00 0.107D+01
 Coeff-Com:  0.335D+01-0.520D+00 0.614D+00-0.484D+00-0.237D+00-0.793D+01
 Coeff-Com:  0.704D+01 0.147D+01
 Coeff:     -0.181D+00 0.579D-01 0.239D+00-0.280D+00-0.352D+01 0.938D+01
 Coeff:     -0.614D+01-0.695D+01 0.936D+01-0.568D+01 0.332D+00 0.107D+01
 Coeff:      0.335D+01-0.520D+00 0.614D+00-0.484D+00-0.237D+00-0.793D+01
 Coeff:      0.704D+01 0.147D+01
 Gap=     0.071 Goal=   None    Shift=    0.000
 Gap=     0.126 Goal=   None    Shift=    0.000
 RMSDP=3.07D-01 MaxDP=8.84D+01 DE= 3.84D-02 OVMax= 1.86D-01

 Cycle  23  Pass 1  IDiag  1:
 RMSU=  1.59D-01    CP:  8.51D-01  1.18D+00
 E= -2523.38323696320     Delta-E=       -0.086817396336 Rises=F Damp=F AM=F Ri=F Fa=F
 DIIS: error= 2.09D-02 at cycle  23 NSaved=  20.
 NSaved=20 IEnMin=20 EnMin= -2523.38323696320     IErMin= 5 ErrMin= 1.35D-02
 ErrMax= 2.09D-02  0.00D+00 EMaxC= 1.00D+00 BMatC= 2.47D+00 BMatP= 6.23D-01
 Rises=F IDIUse=1 WtCom= 1.00D+00 WtEn= 0.00D+00
 Coeff-Com: -0.870D-01-0.980D-01-0.668D-01-0.399D+01 0.130D+02-0.111D+02
 Coeff-Com: -0.253D+01 0.662D+01-0.325D+01-0.184D+01 0.978D+00 0.324D+01
 Coeff-Com: -0.652D+00 0.571D+00-0.232D+00-0.324D-01-0.432D+01 0.320D+01
 Coeff-Com:  0.105D+01 0.526D+00
 Coeff:     -0.870D-01-0.980D-01-0.668D-01-0.399D+01 0.130D+02-0.111D+02
 Coeff:     -0.253D+01 0.662D+01-0.325D+01-0.184D+01 0.978D+00 0.324D+01
 Coeff:     -0.652D+00 0.571D+00-0.232D+00-0.324D-01-0.432D+01 0.320D+01
 Coeff:      0.105D+01 0.526D+00
 Gap=     0.071 Goal=     0.100 Shift=    0.029
 Gap=     0.164 Goal=     0.100 Shift=    0.000
 RMSDP=1.73D-01 MaxDP=5.02D+01 DE=-8.68D-02 OVMax= 4.28D-01

 Cycle  24  Pass 1  IDiag  1:
 RMSU=  5.49D-02    CP:  9.42D-01  1.11D+00  1.07D+00
 E= -2522.93212303990     Delta-E=        0.451113923299 Rises=F Damp=F AM=T Ri=T Fa=F
 DIIS: error= 1.19D-01 at cycle  24 NSaved=  20.
 NSaved=20 IEnMin=19 EnMin= -2523.38323696320     IErMin= 4 ErrMin= 1.35D-02
 ErrMax= 1.19D-01  0.00D+00 EMaxC= 1.00D+00 BMatC= 2.12D+01 BMatP= 6.23D-01
 Rises=T IDIUse=1 WtCom= 1.00D+00 WtEn= 0.00D+00
 Coeff-Com:  0.193D+00-0.494D+00-0.239D+01 0.544D+01-0.237D+01-0.402D+01
 Coeff-Com:  0.506D+01 0.194D+01-0.332D+01-0.742D+00 0.103D+01 0.139D+00
 Coeff-Com: -0.218D+00 0.510D+00 0.258D+01-0.520D+01 0.190D+01 0.335D+00
 Coeff-Com:  0.547D+00 0.834D-01
 Coeff:      0.193D+00-0.494D+00-0.239D+01 0.544D+01-0.237D+01-0.402D+01
 Coeff:      0.506D+01 0.194D+01-0.332D+01-0.742D+00 0.103D+01 0.139D+00
 Coeff:     -0.218D+00 0.510D+00 0.258D+01-0.520D+01 0.190D+01 0.335D+00
 Coeff:      0.547D+00 0.834D-01
 Gap=     0.116 Goal=   None    Shift=    0.000
 Gap=     0.179 Goal=   None    Shift=    0.000
 RMSDP=5.95D-01 MaxDP=1.42D+02 DE= 4.51D-01 OVMax= 2.84D-01

 Cycle  25  Pass 1  IDiag  1:
 RMSU=  1.12D-01    CP:  6.45D-01 -6.27D-01  1.43D+00  1.22D+00
 E= -2523.42624484896     Delta-E=       -0.494121809057 Rises=F Damp=F AM=F Ri=F Fa=F
 DIIS: error= 7.33D-02 at cycle  25 NSaved=  20.
 NSaved=20 IEnMin=20 EnMin= -2523.42624484896     IErMin= 3 ErrMin= 1.35D-02
 ErrMax= 7.33D-02  0.00D+00 EMaxC= 1.00D+00 BMatC= 9.17D+00 BMatP= 6.23D-01
 Rises=F IDIUse=1 WtCom= 1.00D+00 WtEn= 0.00D+00
 Coeff-Com: -0.146D+00-0.138D+01 0.901D+00 0.363D+01-0.730D+01 0.555D+01
 Coeff-Com: -0.208D+00-0.157D+01-0.573D-01 0.101D+01 0.260D+00-0.118D+01
 Coeff-Com:  0.106D+01 0.227D+01-0.477D+01 0.207D+01 0.475D+00 0.187D+00
 Coeff-Com: -0.795D-01 0.271D+00
 Coeff:     -0.146D+00-0.138D+01 0.901D+00 0.363D+01-0.730D+01 0.555D+01
 Coeff:     -0.208D+00-0.157D+01-0.573D-01 0.101D+01 0.260D+00-0.118D+01
 Coeff:      0.106D+01 0.227D+01-0.477D+01 0.207D+01 0.475D+00 0.187D+00
 Coeff:     -0.795D-01 0.271D+00
 Gap=     0.131 Goal=     0.100 Shift=    0.000
 Gap=     0.020 Goal=     0.100 Shift=    0.080
 RMSDP=7.39D-01 MaxDP=2.35D+02 DE=-4.94D-01 OVMax= 3.47D-01

 Cycle  26  Pass 1  IDiag  1:
 RMSU=  2.57D-02    CP:  2.41D-01 -5.08D-01  7.19D-01  3.45D-02  7.81D-01
 E= -2523.46358387768     Delta-E=       -0.037339028726 Rises=F Damp=F AM=F Ri=F Fa=F
 DIIS: error= 7.50D-02 at cycle  26 NSaved=  20.
 NSaved=20 IEnMin=20 EnMin= -2523.46358387768     IErMin= 2 ErrMin= 1.35D-02
 ErrMax= 7.50D-02  0.00D+00 EMaxC= 1.00D+00 BMatC= 9.34D+00 BMatP= 6.23D-01
 Rises=F IDIUse=1 WtCom= 1.00D+00 WtEn= 0.00D+00
 Coeff-Com: -0.278D+01 0.197D+01 0.482D+01-0.784D+01 0.474D+01-0.683D+00
 Coeff-Com:  0.756D+00-0.123D+01 0.549D+00 0.691D+00 0.578D+00-0.106D+01
 Coeff-Com:  0.809D+00 0.910D+00-0.208D+01 0.443D+00 0.816D-01-0.315D+00
 Coeff-Com:  0.274D+00 0.372D+00
 Coeff:     -0.278D+01 0.197D+01 0.482D+01-0.784D+01 0.474D+01-0.683D+00
 Coeff:      0.756D+00-0.123D+01 0.549D+00 0.691D+00 0.578D+00-0.106D+01
 Coeff:      0.809D+00 0.910D+00-0.208D+01 0.443D+00 0.816D-01-0.315D+00
 Coeff:      0.274D+00 0.372D+00
 Gap=     0.149 Goal=     0.100 Shift=    0.000
 Gap=     0.072 Goal=     0.100 Shift=    0.028
 RMSDP=1.24D-01 MaxDP=3.06D+01 DE=-3.73D-02 OVMax= 1.57D-01

 Cycle  27  Pass 1  IDiag  1:
 RMSU=  6.56D-02    CP:  2.92D-01 -4.70D-01  1.02D+00 -1.90D-01  8.97D-01
                    CP:  1.46D+00
 E= -2523.58128759668     Delta-E=       -0.117703718999 Rises=F Damp=F AM=F Ri=F Fa=F
 DIIS: error= 6.15D-02 at cycle  27 NSaved=  20.
 NSaved=20 IEnMin=20 EnMin= -2523.58128759668     IErMin= 1 ErrMin= 1.35D-02
 ErrMax= 6.15D-02  0.00D+00 EMaxC= 1.00D+00 BMatC= 6.02D+00 BMatP= 6.23D-01
 Rises=F IDIUse=1 WtCom= 1.00D+00 WtEn= 0.00D+00
 Coeff-Com: -0.501D+01 0.120D+02-0.119D+02 0.569D+01-0.130D+00 0.113D+01
 Coeff-Com: -0.984D+00-0.923D+00 0.126D+01 0.104D+01-0.174D+01-0.599D+00
 Coeff-Com:  0.256D+01-0.210D+01 0.368D+00 0.649D-02-0.306D+00 0.518D-01
 Coeff-Com:  0.326D+00 0.329D+00
 Coeff:     -0.501D+01 0.120D+02-0.119D+02 0.569D+01-0.130D+00 0.113D+01
 Coeff:     -0.984D+00-0.923D+00 0.126D+01 0.104D+01-0.174D+01-0.599D+00
 Coeff:      0.256D+01-0.210D+01 0.368D+00 0.649D-02-0.306D+00 0.518D-01
 Coeff:      0.326D+00 0.329D+00
 Gap=     0.156 Goal=     0.100 Shift=    0.000
 Gap=     0.031 Goal=     0.100 Shift=    0.069
 RMSDP=5.63D-01 MaxDP=1.74D+02 DE=-1.18D-01 OVMax= 4.99D-01

 Cycle  28  Pass 1  IDiag  1:
 RMSU=  3.67D-02    CP:  5.57D-04 -1.56D-02  3.22D-02 -1.97D-02  1.08D-01
                    CP:  7.74D-01  2.15D-02
 E= -2523.67002593417     Delta-E=       -0.088738337485 Rises=F Damp=F AM=F Ri=F Fa=F
 DIIS: error= 5.23D-02 at cycle  28 NSaved=  20.
 NSaved=20 IEnMin=20 EnMin= -2523.67002593417     IErMin= 1 ErrMin= 1.40D-02
 ErrMax= 5.23D-02  0.00D+00 EMaxC= 1.00D+00 BMatC= 4.38D+00 BMatP= 6.23D-01
 Rises=F IDIUse=1 WtCom= 1.00D+00 WtEn= 0.00D+00
 Coeff-Com:  0.102D+01-0.460D+01 0.416D+01-0.680D+00 0.181D+01-0.317D+00
 Coeff-Com: -0.168D+01 0.130D+01 0.142D+01-0.253D+01-0.300D+01 0.114D+02
 Coeff-Com: -0.785D+01 0.192D+00-0.213D-01 0.567D-01-0.454D+00-0.919D-01
 Coeff-Com:  0.347D+00 0.524D+00
 Coeff:      0.102D+01-0.460D+01 0.416D+01-0.680D+00 0.181D+01-0.317D+00
 Coeff:     -0.168D+01 0.130D+01 0.142D+01-0.253D+01-0.300D+01 0.114D+02
 Coeff:     -0.785D+01 0.192D+00-0.213D-01 0.567D-01-0.454D+00-0.919D-01
 Coeff:      0.347D+00 0.524D+00
 Gap=     0.192 Goal=     0.100 Shift=    0.000
 Gap=     0.096 Goal=     0.100 Shift=    0.004
 RMSDP=4.35D-02 MaxDP=6.60D+00 DE=-8.87D-02 OVMax= 3.10D-01

 Cycle  29  Pass 1  IDiag  1:
 RMSU=  1.51D-02    CP:  1.29D-02 -4.95D-02  3.71D-02 -6.79D-02  8.39D-02
                    CP:  4.49D-01 -7.41D-02  1.27D-01
 E= -2523.83101840331     Delta-E=       -0.160992469141 Rises=F Damp=F AM=F Ri=F Fa=F
 DIIS: error= 2.68D-02 at cycle  29 NSaved=  20.
 NSaved=20 IEnMin=20 EnMin= -2523.83101840331     IErMin= 1 ErrMin= 1.43D-02
 ErrMax= 2.68D-02  0.00D+00 EMaxC= 1.00D+00 BMatC= 1.33D+00 BMatP= 6.23D-01
 Rises=F IDIUse=1 WtCom= 1.00D+00 WtEn= 0.00D+00
 Coeff-Com: -0.175D+01 0.207D+01-0.391D+01 0.289D+01 0.624D+00 0.670D+00
 Coeff-Com:  0.545D-01 0.223D+01-0.297D+01-0.279D+01 0.102D+02-0.719D+01
 Coeff-Com:  0.244D+00-0.622D-01 0.899D-01-0.259D+00-0.108D+00 0.145D+00
 Coeff-Com: -0.364D+00 0.123D+01
 Coeff:     -0.175D+01 0.207D+01-0.391D+01 0.289D+01 0.624D+00 0.670D+00
 Coeff:      0.545D-01 0.223D+01-0.297D+01-0.279D+01 0.102D+02-0.719D+01
 Coeff:      0.244D+00-0.622D-01 0.899D-01-0.259D+00-0.108D+00 0.145D+00
 Coeff:     -0.364D+00 0.123D+01
 Gap=     0.178 Goal=     0.100 Shift=    0.000
 Gap=     0.106 Goal=     0.100 Shift=    0.000
 RMSDP=2.80D-02 MaxDP=6.54D+00 DE=-1.61D-01 OVMax= 2.27D-01

 Cycle  30  Pass 1  IDiag  1:
 RMSU=  7.98D-03    CP:  2.11D-04 -1.55D-03  1.42D-03 -9.48D-03  1.10D-02
                    CP:  2.27D-01 -2.84D-02  1.53D-01  8.84D-01
 E= -2523.87951331252     Delta-E=       -0.048494909209 Rises=F Damp=F AM=F Ri=F Fa=F
 DIIS: error= 1.57D-02 at cycle  30 NSaved=  20.
 NSaved=20 IEnMin=20 EnMin= -2523.87951331252     IErMin= 1 ErrMin= 1.44D-02
 ErrMax= 1.57D-02  0.00D+00 EMaxC= 1.00D+00 BMatC= 5.40D-01 BMatP= 6.23D-01
 Rises=F IDIUse=1 WtCom= 1.00D+00 WtEn= 0.00D+00
 Coeff-Com:  0.149D-01-0.106D+01 0.190D+01-0.105D+01 0.272D+00 0.502D+00
 Coeff-Com:  0.189D+01-0.245D+01-0.459D+01 0.754D+01-0.297D+01 0.273D+00
 Coeff-Com: -0.961D-01-0.503D-01-0.701D-01 0.217D+00-0.271D+00-0.140D+00
 Coeff-Com:  0.513D+00 0.621D+00
 Coeff:      0.149D-01-0.106D+01 0.190D+01-0.105D+01 0.272D+00 0.502D+00
 Coeff:      0.189D+01-0.245D+01-0.459D+01 0.754D+01-0.297D+01 0.273D+00
 Coeff:     -0.961D-01-0.503D-01-0.701D-01 0.217D+00-0.271D+00-0.140D+00
 Coeff:      0.513D+00 0.621D+00
 Gap=     0.173 Goal=     0.100 Shift=    0.000
 Gap=     0.085 Goal=     0.100 Shift=    0.015
 RMSDP=4.61D-03 MaxDP=7.57D-01 DE=-4.85D-02 OVMax= 9.28D-02

 Cycle  31  Pass 1  IDiag  1:
 RMSU=  2.64D-03    CP:  1.90D-03 -1.31D-02 -4.43D-03 -1.91D-02  1.29D-02
                    CP:  2.36D-01 -3.42D-02  1.31D-01  9.13D-01  9.12D-01
 E= -2523.90449695979     Delta-E=       -0.024983647278 Rises=F Damp=F AM=F Ri=F Fa=F
 DIIS: error= 7.60D-03 at cycle  31 NSaved=  20.
 NSaved=20 IEnMin=20 EnMin= -2523.90449695979     IErMin=20 ErrMin= 7.60D-03
 ErrMax= 7.60D-03  0.00D+00 EMaxC= 1.00D+00 BMatC= 1.30D-01 BMatP= 5.40D-01
 Rises=F IDIUse=1 WtCom= 1.00D+00 WtEn= 0.00D+00
 Coeff-Com: -0.576D-02-0.114D+01 0.120D+01 0.393D+00-0.580D+00 0.250D-01
 Coeff-Com:  0.180D+01-0.162D+01-0.591D+01 0.595D+01-0.131D+00 0.157D+00
 Coeff-Com: -0.496D-01-0.427D-01 0.835D-01-0.125D+00 0.913D-01-0.197D+00
 Coeff-Com: -0.105D+00 0.121D+01
 Coeff:     -0.576D-02-0.114D+01 0.120D+01 0.393D+00-0.580D+00 0.250D-01
 Coeff:      0.180D+01-0.162D+01-0.591D+01 0.595D+01-0.131D+00 0.157D+00
 Coeff:     -0.496D-01-0.427D-01 0.835D-01-0.125D+00 0.913D-01-0.197D+00
 Coeff:     -0.105D+00 0.121D+01
 Gap=     0.169 Goal=     0.100 Shift=    0.000
 Gap=     0.091 Goal=     0.100 Shift=    0.009
 RMSDP=4.66D-03 MaxDP=7.30D-01 DE=-2.50D-02 OVMax= 1.14D-01

 Cycle  32  Pass 1  IDiag  1:
 RMSU=  1.59D-03    CP:  1.96D-04 -5.25D-04  1.28D-03 -8.18D-03  8.95D-03
                    CP:  2.09D-01 -2.44D-02  1.45D-01  8.77D-01  1.06D+00
                    CP:  3.59D-01
 E= -2523.91481211830     Delta-E=       -0.010315158510 Rises=F Damp=F AM=F Ri=F Fa=F
 DIIS: error= 2.61D-03 at cycle  32 NSaved=  20.
 NSaved=20 IEnMin=20 EnMin= -2523.91481211830     IErMin=20 ErrMin= 2.61D-03
 ErrMax= 2.61D-03  0.00D+00 EMaxC= 1.00D+00 BMatC= 2.16D-02 BMatP= 1.30D-01
 Rises=F IDIUse=1 WtCom= 1.00D+00 WtEn= 0.00D+00
 Coeff-Com: -0.691D+00 0.715D+00 0.430D+00-0.630D+00-0.294D-02 0.156D+01
 Coeff-Com: -0.137D+01-0.407D+01 0.280D+01 0.121D+01 0.137D+00-0.324D-01
 Coeff-Com: -0.560D-03-0.473D-01 0.566D-01 0.798D-01-0.239D+00-0.168D+00
 Coeff-Com:  0.599D+00 0.674D+00
 Coeff:     -0.691D+00 0.715D+00 0.430D+00-0.630D+00-0.294D-02 0.156D+01
 Coeff:     -0.137D+01-0.407D+01 0.280D+01 0.121D+01 0.137D+00-0.324D-01
 Coeff:     -0.560D-03-0.473D-01 0.566D-01 0.798D-01-0.239D+00-0.168D+00
 Coeff:      0.599D+00 0.674D+00
 Gap=     0.166 Goal=     0.100 Shift=    0.000
 Gap=     0.092 Goal=     0.100 Shift=    0.008
 RMSDP=1.44D-03 MaxDP=2.43D-01 DE=-1.03D-02 OVMax= 7.97D-02

 >>>>>>>>>> Convergence criterion not met.
 SCF not conv:  E(UwB97XD) =  -2523.91481212     A.U. after   33 cycles
            NFock= 32  Conv=0.14D-02     -V/T= 2.3749
 <Sx>=  0.0000 <Sy>=  0.0000 <Sz>= 11.5000 <S**2>= 144.3825 S= 11.5263
 <L.S>=  0.00000000000    
 KE=        1835.724514 PE=       -8572.748570 EE=        3043.359681
 Annihilation of the first spin contaminant:
 S**2 before annihilation   144.3825,   after   143.7602
 Leave Link  502 at Thu Jun 12 14:28:27 2025, MaxMem= 12348030976 cpu:           70554.6 elap:            1386.0
 (Enter /home/hhratchian/gaussian//gdv-20240213-j26+/gdv/l508.exe)
 Integral symmetry usage will be decided dynamically.
 Tight linear equation convergence will be used.
 UwB97XD wavefunction.
 Linear searches until partial convergence.
 Full line searches.
 Fock matrices will be formed incrementally for  20 cycles.
 FoFJK:  IHMeth= 1 ICntrl=       0 DoSepK=T KAlg= 0 I1Cent=           0 FoldK=F
 IRaf=         1 NMat=       1 IRICut=       1 DoRegI=T DoRafI=F ISym2E= 1 IDoP0=0 IntGTp=1.
 FoFCou: FMM=F IPFlag=           0 FMFlag=      100000 FMFlg1=           0
         NFxFlg=           0 DoJE=T BraDBF=F KetDBF=F FulRan=T
         wScrn=  0.000000 ICntrl=       500 IOpCl=  0 I1Cent=           0 NGrid=           0
         NMat0=    1 NMatS0=      1 NMatT0=    0 NMatD0=    1 NMtDS0=    0 NMtDT0=    0
 Petite list used in FoFCou.
 Iteration   1 EE= -2523.91481211830                                    Grad=1.040D-01 Max rot=    1.1507 deg.
 Gradient too large for Newton-Raphson -- use scaled steepest descent instead.
 Alpha Gap=     0.144 HL deriv= 6.77D-03
  Beta Gap=     0.093 HL deriv= 5.68D-02
     ILin= 1 X=0.000D+00 Y=-2.523914812118D+03 DE= 0.00D+00 F= -2.17D-02
 RMSU=  3.96D-04    CP:  1.00D+00
     ILin= 2 X=3.000D-01 Y=-2.523914275286D+03 DE= 5.37D-04 F=  2.45D-02 OKLS=T
     Reject lnstep IMin12=  1  2 Big=F Turn=F Min= 1.493D-01 FVal=-2.523920316169D+03 Lims=  0.00D+00  3.00D-01
 RMSU=  6.35D-06    CP:  1.00D+00  3.33D-01
     ILin= 3 X=1.000D-01 Y=-2.523916182833D+03 DE=-1.37D-03 F= -5.79D-03
     A contracting polynomial of degree  3 produced  0.1385
 RMSU=  4.29D-09    CP:  1.00D+00  4.61D-01  1.12D+00
 Iteration   2 EE= -2523.91628994097     Delta-E=       -0.001477822666 Grad=4.640D-02 Max rot=    0.8066 deg.
 Gradient too large for Newton-Raphson -- use scaled steepest descent instead.
 Alpha Gap=     0.166 HL deriv= 6.72D-04
  Beta Gap=     0.094 HL deriv= 5.60D-02
     ILin= 1 X=0.000D+00 Y=-2.523916289941D+03 DE= 0.00D+00 F= -3.74D-03
 RMSU=  2.28D-04    CP:  1.00D+00  8.44D-01 -3.00D+00 -3.00D+00
     ILin= 2 X=3.000D-01 Y=-2.523917051125D+03 DE=-7.61D-04 F= -1.33D-03 OKLS=F
 RMSU=  4.01D-05    CP:  1.00D+00  1.10D+00 -3.00D+00 -3.00D+00  1.67D+00
     ILin= 3 X=5.000D-01 Y=-2.523917154502D+03 DE=-8.65D-04 F=  2.97D-04
     Accept linear search using points  2 and  3.
     An  expanding polynomial of degree  3 produced  0.3852
 RMSU=  4.77D-07    CP:  1.00D+00  9.55D-01 -3.00D+00 -3.00D+00  1.29D+00
                    CP:  3.69D-01
 Iteration   3 EE= -2523.91713489956     Delta-E=       -0.000844958588 Grad=4.924D-02 Max rot=    0.5968 deg.
 Gradient too large for Newton-Raphson -- use scaled steepest descent instead.
 Alpha Gap=     0.155 HL deriv= 3.39D-03
  Beta Gap=     0.094 HL deriv= 5.42D-02
     ILin= 1 X=0.000D+00 Y=-2.523917134900D+03 DE= 0.00D+00 F= -5.91D-03
 RMSU=  2.86D-05    CP:  1.00D+00  1.32D+00 -3.00D+00 -3.00D+00  1.55D+00
                    CP:  1.27D+00 -3.00D+00
     ILin= 2 X=2.000D-01 Y=-2.523917668987D+03 DE=-5.34D-04 F=  5.43D-04 OKLS=F
 RMSU=  3.99D-06    CP:  9.99D-01  1.69D+00 -3.00D+00 -3.00D+00  1.82D+00
                    CP:  2.47D+00 -3.00D+00  2.02D+00
     ILin= 3 X=4.000D-01 Y=-2.523916930141D+03 DE= 2.05D-04 F=  6.81D-03
     An  expanding polynomial of degree  3 produced  0.1839
     Minimum is close to point  2 DX= -1.61D-02 DF= -4.12D-06 DXR=  8.75D-02 DFR=  7.71D-03 which will be used.
 Iteration   4 EE= -2523.91766898720     Delta-E=       -0.000534087644 Grad=3.952D-02 Max rot=    0.5140 deg.
 Gradient too large for Newton-Raphson -- use scaled steepest descent instead.
 Alpha Gap=     0.169 HL deriv= 3.44D-04
  Beta Gap=     0.095 HL deriv= 5.33D-02
     ILin= 1 X=0.000D+00 Y=-2.523917668987D+03 DE= 0.00D+00 F= -3.83D-03
 RMSU=  3.46D-05    CP:  9.99D-01  1.49D+00 -3.00D+00 -3.00D+00  2.88D+00
                    CP:  3.00D+00 -6.61D-01  2.97D+00 -1.03D+00
     ILin= 2 X=4.000D-01 Y=-2.523917955757D+03 DE=-2.87D-04 F=  2.44D-03 OKLS=T
     Accept linear search using points  1 and  2.
     An  expanding polynomial of degree  2 produced  0.2053
 RMSU=  7.42D-06    CP:  9.99D-01  1.41D+00 -3.00D+00 -3.00D+00  2.23D+00
                    CP:  2.40D+00 -3.00D+00  2.01D+00 -7.47D-01  1.39D-01
 Iteration   5 EE= -2523.91812961360     Delta-E=       -0.000460626395 Grad=2.847D-02 Max rot=    0.3653 deg.
 Gradient too large for Newton-Raphson -- use scaled steepest descent instead.
 Alpha Gap=     0.160 HL deriv= 1.96D-03
  Beta Gap=     0.094 HL deriv= 5.27D-02
     ILin= 1 X=0.000D+00 Y=-2.523918129614D+03 DE= 0.00D+00 F= -2.83D-03
 RMSU=  1.42D-05    CP:  9.99D-01  1.62D+00 -3.00D+00 -3.00D+00  2.57D+00
                    CP:  3.00D+00 -3.00D+00  3.00D+00 -7.88D-03  7.54D-01
                    CP:  3.01D-01
     ILin= 2 X=2.000D-01 Y=-2.523918530874D+03 DE=-4.01D-04 F= -1.18D-03 OKLS=F
 RMSU=  1.60D-05    CP:  9.99D-01  1.83D+00 -3.00D+00 -3.00D+00  2.90D+00
                    CP:  3.00D+00 -3.00D+00  3.00D+00  1.34D+00  2.13D+00
                    CP: -2.57D+00  3.00D+00
     ILin= 3 X=4.000D-01 Y=-2.523918602593D+03 DE=-4.73D-04 F=  4.60D-04
     Accept linear search using points  2 and  3.
     An  expanding polynomial of degree  3 produced  0.2907
 RMSU=  3.48D-06    CP:  9.99D-01  1.71D+00 -3.00D+00 -3.00D+00  2.72D+00
                    CP:  3.00D+00 -3.00D+00  3.00D+00  5.28D-01  1.35D+00
                    CP: -9.49D-01  2.31D+00  1.69D-01
 Iteration   6 EE= -2523.91860404745     Delta-E=       -0.000474433856 Grad=3.745D-02 Max rot=    0.3618 deg.
 Gradient too large for Newton-Raphson -- use scaled steepest descent instead.
 Alpha Gap=     0.170 HL deriv= 7.37D-04
  Beta Gap=     0.095 HL deriv= 5.13D-02
     ILin= 1 X=0.000D+00 Y=-2.523918604047D+03 DE= 0.00D+00 F= -3.70D-03
 RMSU=  1.36D-04    CP:  9.99D-01  1.69D+00 -3.00D+00 -3.00D+00  3.00D+00
                    CP:  3.00D+00 -3.00D+00  3.00D+00 -1.15D+00  3.00D+00
                    CP: -2.68D+00  3.00D+00  3.00D+00 -3.00D+00
     ILin= 2 X=3.000D-01 Y=-2.523918962115D+03 DE=-3.58D-04 F=  1.34D-03 OKLS=T
     Accept linear search using points  1 and  2.
     An  expanding polynomial of degree  2 produced  0.1466
 RMSU=  4.56D-06    CP:  9.99D-01  1.70D+00 -3.00D+00 -3.00D+00  3.00D+00
                    CP:  3.00D+00 -3.00D+00  3.00D+00 -1.96D-01  2.35D+00
                    CP: -1.77D+00  3.00D+00  1.38D+00 -8.77D-01  2.44D-01
 Iteration   7 EE= -2523.91896815430     Delta-E=       -0.000364106851 Grad=1.669D-02 Max rot=    0.2916 deg.
 Gradient too large for Newton-Raphson -- use scaled steepest descent instead.
 Alpha Gap=     0.163 HL deriv= 9.74D-04
  Beta Gap=     0.095 HL deriv= 5.09D-02
     ILin= 1 X=0.000D+00 Y=-2.523918968154D+03 DE= 0.00D+00 F= -1.76D-03
 RMSU=  4.21D-05    CP:  9.98D-01  1.82D+00 -3.00D+00 -3.00D+00  3.00D+00
                    CP:  3.00D+00 -3.00D+00  3.00D+00  1.35D-01  3.00D+00
                    CP: -3.00D+00  3.00D+00  3.00D+00 -3.00D+00  1.14D+00
                    CP: -3.00D+00
     ILin= 2 X=3.000D-01 Y=-2.523919449524D+03 DE=-4.81D-04 F= -1.44D-03 OKLS=F
 RMSU=  2.52D-05    CP:  9.98D-01  1.90D+00 -3.00D+00 -3.00D+00  3.00D+00
                    CP:  3.00D+00 -3.00D+00  3.00D+00  6.73D-01  3.00D+00
                    CP: -3.00D+00  3.00D+00  3.00D+00 -3.00D+00  1.76D+00
                    CP: -3.00D+00  2.32D+00
     ILin= 3 X=5.000D-01 Y=-2.523919716860D+03 DE=-7.49D-04 F= -1.23D-03
 RMSU=  8.51D-05    CP:  9.98D-01  2.06D+00 -3.00D+00 -3.00D+00  3.00D+00
                    CP:  3.00D+00 -3.00D+00  3.00D+00  2.50D+00  3.00D+00
                    CP: -3.00D+00  3.00D+00  3.00D+00 -3.00D+00  2.98D+00
                    CP: -3.00D+00  3.00D+00  3.00D+00
     ILin= 4 X=9.000D-01 Y=-2.523920119276D+03 DE=-1.15D-03 F= -7.82D-04
 RMSU=  3.10D-04    CP:  9.97D-01  2.33D+00 -3.00D+00 -3.00D+00  3.00D+00
                    CP:  3.00D+00 -3.00D+00  3.00D+00  3.00D+00  3.00D+00
                    CP: -3.00D+00  3.00D+00  3.00D+00 -3.00D+00  3.00D+00
                    CP: -3.00D+00  3.00D+00  3.00D+00  3.00D+00
     ILin= 5 X=1.600D+00 Y=-2.523920382404D+03 DE=-1.41D-03 F=  3.78D-05
     Accept linear search using points  4 and  5.
     An  expanding polynomial of degree  5 produced  1.5140
     Minimum is close to point  5 DX= -8.60D-02 DF= -2.45D-06 DXR=  5.68D-02 DFR=  1.73D-03 which will be used.
 Iteration   8 EE= -2523.92038240391     Delta-E=       -0.001414249603 Grad=9.132D-02 Max rot=    0.6586 deg.
 Gradient too large for Newton-Raphson -- use scaled steepest descent instead.
 Alpha Gap=     0.185 HL deriv= 3.80D-03
  Beta Gap=     0.098 HL deriv= 4.04D-02
     ILin= 1 X=0.000D+00 Y=-2.523920382404D+03 DE= 0.00D+00 F= -1.59D-02
 Restarting incremental Fock formation.
     ILin= 2 X=5.000D-01 Y=-2.523912647768D+03 DE= 7.73D-03 F=  4.82D-02 OKLS=T
     Reject lnstep IMin12=  1  2 Big=F Turn=F Min= 2.194D-01 FVal=-2.523924425409D+03 Lims=  0.00D+00  5.00D-01
 RMSU=  3.59D-04    CP:  1.00D+00
     ILin= 3 X=2.000D-01 Y=-2.523921128278D+03 DE=-7.46D-04 F=  8.74D-03
     A contracting polynomial of degree  3 produced  0.1291
 RMSU=  5.89D-06    CP:  1.00D+00  1.23D+00
 Iteration   9 EE= -2523.92143044695     Delta-E=       -0.001048043047 Grad=1.148D-02 Max rot=    0.2336 deg.
 Gradient too large for Newton-Raphson -- use scaled steepest descent instead.
 Alpha Gap=     0.168 HL deriv= 1.26D-04
  Beta Gap=     0.097 HL deriv= 4.08D-02
     ILin= 1 X=0.000D+00 Y=-2.523921430447D+03 DE= 0.00D+00 F= -1.01D-03
 RMSU=  5.21D-04    CP:  9.97D-01 -7.20D-01 -3.00D+00
     ILin= 2 X=1.500D+00 Y=-2.523922346171D+03 DE=-9.16D-04 F= -1.95D-04 OKLS=F
 RMSU=  1.39D-04    CP:  9.95D-01 -2.34D+00  2.11D+00  1.78D+00
     ILin= 3 X=2.800D+00 Y=-2.523922104473D+03 DE=-6.74D-04 F=  5.77D-04
     An  expanding polynomial of degree  3 produced  1.8232
 RMSU=  2.63D-06    CP:  9.96D-01 -1.13D+00 -3.00D+00  1.20D+00  1.73D-01
 Iteration  10 EE= -2523.92237927363     Delta-E=       -0.000948826676 Grad=7.237D-02 Max rot=    0.4799 deg.
 Gradient too large for Newton-Raphson -- use scaled steepest descent instead.
 Alpha Gap=     0.185 HL deriv= 3.30D-03
  Beta Gap=     0.100 HL deriv= 3.09D-02
     ILin= 1 X=0.000D+00 Y=-2.523922379274D+03 DE= 0.00D+00 F= -9.94D-03
 RMSU=  9.61D-05    CP:  9.97D-01 -2.18D+00  3.00D+00  1.12D+00  4.33D-01
                    CP:  3.00D+00
     ILin= 2 X=5.000D-01 Y=-2.523917393990D+03 DE= 4.99D-03 F=  3.06D-02 OKLS=T
     Reject lnstep IMin12=  1  2 Big=F Turn=F Min= 2.180D-01 FVal=-2.523924883499D+03 Lims=  0.00D+00  5.00D-01
 RMSU=  5.16D-06    CP:  9.96D-01 -1.55D+00 -3.00D+00  1.17D+00  3.14D-01
                    CP:  3.00D+00  4.08D-01
     ILin= 3 X=2.000D-01 Y=-2.523922809074D+03 DE=-4.30D-04 F=  5.76D-03
     A contracting polynomial of degree  3 produced  0.1266
 RMSU=  8.60D-07    CP:  9.96D-01 -1.39D+00 -3.00D+00  1.18D+00  2.60D-01
                    CP:  3.00D+00  2.54D-01  1.80D-01
 Iteration  11 EE= -2523.92301693970     Delta-E=       -0.000637666067 Grad=7.967D-03 Max rot=    0.1777 deg.
 SCF not conv:  E(UwB97XD) =  -2523.92301694     a.u. after   11 cycles
            Convg  =    0.7967D-02                    29 Fock formations.
              S**2 = *******                  -V/T =  2.3833
[...]
     11  0.146850D+00
     12  0.102913D-01  0.263674D-01
     13 -0.209892D-01 -0.676197D-02  0.126892D+00
     14  0.617227D-02 -0.957042D-02  0.161844D-02  0.358516D-01
     15 -0.901723D-02  0.380639D-02 -0.155669D-03  0.877820D-02  0.461827D-01
     16  0.177212D-01 -0.804021D-02 -0.717886D-02  0.192312D-01  0.285309D-02
     17  0.244232D-01 -0.797059D-02  0.205331D-01  0.760155D-02 -0.890874D-02
     18 -0.766900D-02  0.571389D-02  0.708954D-02 -0.931232D-02  0.381238D-02
               16            17            18 
     16  0.843161D-01
     17 -0.618529D-02  0.146517D+00
     18 -0.356599D-01  0.904455D-02  0.263210D-01
 FormGI is forming the generalized inverse of G from B-inverse, IUseBI=4.
 Force constants in internal coordinates: 
                1             2             3             4             5 
      1  0.433730D-01
      2 -0.739712D-02  0.450101D-01
      3  0.238975D-02 -0.110209D-02  0.894903D-01
      4 -0.182850D-02 -0.613917D-03  0.681526D-02  0.115466D-01
      5  0.727695D-03  0.169325D-02  0.222283D-01  0.804809D-02  0.883575D-01
      6  0.784192D-02  0.213732D-01 -0.763505D-02  0.154883D-02 -0.665153D-02
      7  0.109807D-01 -0.493409D-03 -0.133113D-01  0.254536D-03  0.180444D-01
      8  0.179176D-02  0.637504D-02  0.219109D-01 -0.264836D-02 -0.134417D-01
      9  0.206723D-01  0.673235D-02 -0.640405D-02  0.847040D-03 -0.676117D-02
     10  0.238063D-02  0.249305D-02 -0.373162D-02 -0.119451D-02 -0.401016D-02
     11  0.212024D-02 -0.410605D-02  0.548575D-02  0.224354D-03 -0.648907D-02
     12 -0.366611D-02  0.208657D-02 -0.666061D-02  0.106596D-02  0.465794D-02
     13  0.782320D-02 -0.126648D-01  0.111225D-01  0.231809D-03 -0.375476D-02
     14 -0.527054D-02 -0.396987D-02 -0.282467D-02  0.460675D-02 -0.181564D-02
     15 -0.105316D-01  0.735142D-02 -0.414723D-02  0.163909D-02  0.933607D-02
     16 -0.170075D-01  0.385013D-02  0.560806D-02  0.565609D-02  0.268326D-01
     17  0.391184D-02 -0.182848D-01  0.279376D-01  0.458439D-02  0.617368D-02
     18  0.434178D-02  0.547637D-02 -0.344539D-02 -0.581807D-02 -0.424972D-02
     19  0.764559D-02 -0.475294D-03  0.660181D-02 -0.536356D-02  0.268376D-02
     20 -0.656132D-02  0.155087D-03  0.119836D-02  0.436714D-02  0.203883D-02
     21  0.104119D-02 -0.406890D-02 -0.799749D-03  0.223261D-02 -0.686638D-02
     22 -0.123162D-02 -0.157881D-03  0.268195D-02  0.108140D-02  0.669831D-03
     23  0.215383D-02 -0.997942D-03 -0.463129D-02  0.192898D-02 -0.103814D-01
     24 -0.147061D-02 -0.815731D-02 -0.138491D-02  0.548610D-02 -0.927029D-03
     25  0.194829D-02  0.465921D-02 -0.208470D-02 -0.350096D-02 -0.158904D-02
     26 -0.383311D-02 -0.371433D-02  0.282272D-02  0.338436D-02  0.145101D-02
                6             7             8             9            10 
      6  0.694226D-01
      7  0.448267D-02  0.108488D+00
      8 -0.623443D-02  0.401010D-02  0.120264D+00
      9  0.752662D-02 -0.466174D-02  0.459553D-02  0.719898D-01
     10  0.109752D-01 -0.249520D-02 -0.211881D-02  0.104511D-01  0.468862D-02
     11  0.640281D-02 -0.317352D-02  0.233070D-01  0.969904D-02  0.296767D-02
     12  0.971839D-02  0.224832D-01 -0.276969D-02  0.515226D-02  0.315192D-02
     13 -0.809030D-02 -0.738404D-03  0.309541D-01  0.139073D-01  0.608380D-03
     14  0.767604D-02  0.129237D-01  0.100662D-01  0.581661D-02  0.140558D-02
     15  0.129748D-01  0.259114D-01 -0.193960D-02 -0.736185D-02  0.632536D-03
     16 -0.313890D-02  0.863568D-02 -0.480330D-02 -0.104842D-01 -0.233269D-02
     17 -0.109904D-01 -0.307107D-02  0.119700D-01 -0.279286D-02 -0.226834D-02
     18  0.225396D-02 -0.395695D-02 -0.281098D-02 -0.137571D-02  0.452516D-02
     19 -0.585998D-02  0.348595D-02  0.782676D-02 -0.878092D-03  0.140390D-02
     20  0.700219D-02  0.186006D-02  0.408440D-03 -0.164624D-02 -0.170317D-02
     21 -0.305041D-03 -0.100100D-01 -0.662387D-03  0.260051D-02  0.141554D-03
     22  0.552790D-02  0.145152D-02  0.482018D-02  0.195389D-02  0.524263D-03
     23  0.685322D-03 -0.255219D-01 -0.159779D-01  0.294076D-02  0.512093D-04
     24 -0.240305D-02  0.433195D-02 -0.116397D-03  0.624015D-02 -0.136614D-02
     25 -0.755794D-02  0.678588D-02  0.407507D-02 -0.895573D-02 -0.352696D-02
     26  0.578976D-02 -0.240893D-02 -0.491298D-03  0.710534D-02  0.416103D-02
               11            12            13            14            15 
     11  0.982187D-02
     12  0.126473D-02  0.111304D-01
     13  0.978982D-02 -0.774875D-03  0.161011D-01
     14  0.631885D-02  0.850827D-02  0.486349D-02  0.153689D-01
     15 -0.643166D-03  0.932087D-02 -0.500683D-02  0.645438D-02  0.137119D-01
     16 -0.272918D-02  0.475261D-02 -0.444924D-02  0.360819D-02  0.938431D-02
     17  0.508555D-02 -0.251466D-02  0.108572D-01  0.262784D-02 -0.410323D-02
     18 -0.263927D-03  0.111009D-02 -0.294953D-02 -0.616960D-02 -0.218947D-02
     19 -0.237428D-02  0.128195D-02  0.278578D-02 -0.815513D-02 -0.284423D-02
     20  0.632972D-03  0.987927D-03 -0.381605D-03  0.534731D-02  0.433584D-02
     21  0.448438D-03  0.757999D-03  0.177624D-02  0.474243D-02 -0.363930D-02
     22  0.138970D-02  0.177104D-02  0.189116D-02  0.206757D-02  0.198788D-02
     23 -0.280040D-02 -0.453347D-02 -0.343814D-02 -0.640044D-03 -0.793224D-02
     24  0.844388D-03  0.467101D-02  0.400395D-02  0.107761D-01  0.745184D-03
     25 -0.487257D-02  0.587220D-03 -0.261453D-02  0.462631D-03 -0.866775D-03
     26  0.246954D-02  0.576607D-02  0.307149D-02  0.259991D-02  0.204349D-02
               16            17            18            19            20 
     16  0.161614D-01
     17  0.673796D-03  0.170257D-01
     18 -0.435980D-02 -0.449603D-02  0.168501D-01
     19 -0.346613D-02  0.173648D-02  0.104471D-01  0.225188D-01
     20  0.440607D-02  0.107847D-02 -0.103563D-01 -0.799135D-02  0.797361D-02
     21 -0.274159D-02  0.198451D-02 -0.185350D-02  0.788321D-03  0.101075D-02
     22  0.107334D-02  0.143265D-02 -0.291492D-02  0.150468D-02  0.260442D-02
     23 -0.529278D-02 -0.159944D-02 -0.140462D-02 -0.329228D-02  0.732144D-03
     24  0.157164D-02  0.425797D-02 -0.961146D-02 -0.308361D-02  0.566920D-02
     25 -0.183618D-02 -0.304774D-02  0.363502D-03  0.544269D-02 -0.144962D-02
     26  0.261328D-02  0.333688D-02  0.322118D-02  0.846064D-02 -0.673409D-03
               21            22            23            24            25 
     21  0.848881D-02
     22  0.100680D-02  0.243159D-02
     23  0.801785D-02 -0.791528D-03  0.136304D-01
     24  0.902363D-02  0.271453D-02  0.567273D-02  0.154896D-01
     25  0.539927D-02 -0.557455D-03  0.366794D-02  0.539107D-02  0.146428D-01
     26  0.268650D-02  0.318559D-02 -0.906457D-03  0.319037D-02 -0.427145D-02
               26 
     26  0.130987D-01
 Leave Link  716 at Thu Jun 12 19:44:22 2025, MaxMem= 12348030976 cpu:               2.1 elap:               0.1
 (Enter /home/hhratchian/gaussian//gdv-20240213-j26+/gdv/l103.exe)

 GradGradGradGradGradGradGradGradGradGradGradGradGradGradGradGradGradGrad
 Berny optimization.
 Internal  Forces:  Max     0.000014766 RMS     0.000005088
 Search for a local minimum.
 Step number   1 out of a maximum of    2
 All quantities printed in internal units (Hartrees-Bohrs-Radians)
 Second derivative matrix not updated -- analytic derivatives used.
 ITU=  0
     Eigenvalues ---    0.00987   0.01203   0.03146   0.03625   0.03951
     Eigenvalues ---    0.05861   0.06702   0.08675   0.09169   0.12909
     Eigenvalues ---    0.14659   0.15821
 Angle between quadratic step and forces=  19.50 degrees.
 Linear search not attempted -- first point.
 Iteration  1 RMS(Cart)=  0.00008848 RMS(Int)=  0.00000000
 Iteration  2 RMS(Cart)=  0.00000000 RMS(Int)=  0.00000000
 Variable       Old X    -DE/DX   Delta X   Delta X   Delta X     New X
                                 (Linear)    (Quad)   (Total)
    R1        6.37102   0.00000   0.00000   0.00007   0.00007   6.37108
    R2        6.37121  -0.00001   0.00000  -0.00012  -0.00012   6.37108
    R3        4.10087   0.00001   0.00000   0.00010   0.00010   4.10097
    R4        4.64853   0.00000   0.00000   0.00006   0.00006   4.64860
    R5        4.10110  -0.00001   0.00000  -0.00013  -0.00013   4.10097
    R6        4.07219   0.00001   0.00000   0.00023   0.00023   4.07243
    R7        3.85809   0.00001   0.00000   0.00006   0.00006   3.85815
    R8        3.85816   0.00000   0.00000  -0.00001  -0.00001   3.85815
    R9        4.07266  -0.00001   0.00000  -0.00023  -0.00023   4.07243
    A1        1.24253   0.00000   0.00000   0.00003   0.00003   1.24256
    A2        1.79545   0.00000   0.00000   0.00006   0.00006   1.79551
    A3        1.79546   0.00000   0.00000   0.00005   0.00005   1.79551
    A4        1.31175   0.00000   0.00000  -0.00000  -0.00000   1.31175
    A5        2.19643   0.00000   0.00000   0.00010   0.00010   2.19654
    A6        1.31171   0.00000   0.00000   0.00003   0.00003   1.31175
    A7        1.48131  -0.00000   0.00000  -0.00004  -0.00004   1.48127
    A8        1.48119   0.00000   0.00000   0.00009   0.00009   1.48127
    A9        2.28953   0.00000   0.00000   0.00007   0.00007   2.28960
    D1       -2.65051  -0.00000   0.00000  -0.00003  -0.00003  -2.65054
    D2        0.52731   0.00000   0.00000  -0.00001  -0.00001   0.52730
    D3       -0.28504   0.00000   0.00000   0.00006   0.00006  -0.28498
    D4        0.49955   0.00000   0.00000  -0.00000  -0.00000   0.49954
    D5       -0.52625  -0.00000   0.00000   0.00003   0.00003  -0.52622
    D6        0.02176   0.00000   0.00000   0.00003   0.00003   0.02179
    D7        1.73351  -0.00000   0.00000  -0.00001  -0.00001   1.73350
    D8       -1.73355   0.00000   0.00000   0.00004   0.00004  -1.73350
         Item               Value     Threshold  Converged?
 Maximum Force            0.000015     0.000450     YES
 RMS     Force            0.000005     0.000300     YES
 Maximum Displacement     0.000162     0.001800     YES
 RMS     Displacement     0.000074     0.001200     YES
 Predicted change in Energy=-5.530857D-09
 Optimization completed.
    -- Stationary point found.
                           ----------------------------
                           !   Optimized Parameters   !
                           ! (Angstroms and Degrees)  !
 --------------------------                            --------------------------
 ! Name  Definition              Value          Derivative Info.                !
 --------------------------------------------------------------------------------
 ! R1    R(1,2)                  3.3714         -DE/DX =    0.0                 !
 ! R2    R(1,3)                  3.3715         -DE/DX =    0.0                 !
 ! R3    R(1,4)                  2.1701         -DE/DX =    0.0                 !
 ! R4    R(1,5)                  2.4599         -DE/DX =    0.0                 !
 ! R5    R(1,6)                  2.1702         -DE/DX =    0.0                 !
 ! R6    R(2,5)                  2.1549         -DE/DX =    0.0                 !
 ! R7    R(2,6)                  2.0416         -DE/DX =    0.0                 !
 ! R8    R(3,4)                  2.0417         -DE/DX =    0.0                 !
 ! R9    R(3,5)                  2.1552         -DE/DX =    0.0                 !
 ! A1    A(2,1,3)               71.1919         -DE/DX =    0.0                 !
 ! A2    A(2,1,4)              102.8715         -DE/DX =    0.0                 !
 ! A3    A(3,1,6)              102.8722         -DE/DX =    0.0                 !
 ! A4    A(4,1,5)               75.1577         -DE/DX =    0.0                 !
 ! A5    A(4,1,6)              125.8464         -DE/DX =    0.0                 !
 ! A6    A(5,1,6)               75.1557         -DE/DX =    0.0                 !
 ! A7    A(5,2,6)               84.873          -DE/DX =    0.0                 !
 ! A8    A(4,3,5)               84.8657         -DE/DX =    0.0                 !
 ! A9    A(2,5,3)              131.1804         -DE/DX =    0.0                 !
 ! D1    D(2,1,3,4)           -151.8629         -DE/DX =    0.0                 !
 ! D2    D(2,1,3,5)             30.2128         -DE/DX =    0.0                 !
 ! D3    D(2,1,3,6)            -16.3315         -DE/DX =    0.0                 !
 ! D4    D(2,1,4,5)             28.6219         -DE/DX =    0.0                 !
 ! D5    D(2,1,4,6)            -30.1518         -DE/DX =    0.0                 !
 ! D6    D(2,1,5,6)              1.2469         -DE/DX =    0.0                 !
 ! D7    D(6,2,5,3)             99.3228         -DE/DX =    0.0                 !
 ! D8    D(4,3,5,2)            -99.3248         -DE/DX =    0.0                 !
 --------------------------------------------------------------------------------
 GradGradGradGradGradGradGradGradGradGradGradGradGradGradGradGradGradGrad

 Leave Link  103 at Thu Jun 12 19:44:22 2025, MaxMem= 12348030976 cpu:               1.1 elap:               0.1
 (Enter /home/hhratchian/gaussian//gdv-20240213-j26+/gdv/l9999.exe)

 ----------------------------------------------------------------------

 Electric dipole moment (input orientation):
 (Debye = 10**-18 statcoulomb cm , SI units = C m)
                  (au)            (Debye)         (10**-30 SI)
   Tot        0.840230D+00      0.213565D+01      0.712377D+01
   x         -0.813004D-02     -0.206645D-01     -0.689294D-01
   y          0.404339D+00      0.102773D+01      0.342813D+01
   z         -0.736499D+00     -0.187199D+01     -0.624429D+01

 Dipole polarizability, Alpha (input orientation).
 (esu units = cm**3 , SI units = C**2 m**2 J**-1)
 Alpha(0;0):
               (au)            (10**-24 esu)      (10**-40 SI)
   iso        0.830557D+03      0.123076D+03      0.136940D+03
   aniso      0.813239D+03      0.120510D+03      0.134085D+03
   xx         0.135065D+04      0.200146D+03      0.222693D+03
   yx         0.126235D+02      0.187062D+01      0.208134D+01
   yy         0.637751D+03      0.945049D+02      0.105151D+03
   zx         0.230069D+01      0.340928D+00      0.379333D+00
   zy        -0.113538D+03     -0.168245D+02     -0.187198D+02
   zz         0.503267D+03      0.745764D+02      0.829775D+02

 ----------------------------------------------------------------------

 Dipole orientation:
    64         -1.10134330         -4.04089935          3.13935592
    64         -4.74399962         -0.12064633         -0.31788967
    64          2.67157602         -0.25546087         -0.32875787
     8          2.55331016         -3.75005978          1.30195313
     8         -1.02646976          0.23049373          1.30674444
     8         -4.74848675         -3.61739197          1.31233826

 Electric dipole moment (dipole orientation):
 (Debye = 10**-18 statcoulomb cm , SI units = C m)
                  (au)            (Debye)         (10**-30 SI)
   Tot        0.840230D+00      0.213565D+01      0.712377D+01
   x          0.000000D+00      0.000000D+00      0.000000D+00
   y          0.000000D+00      0.000000D+00      0.000000D+00
   z          0.840230D+00      0.213565D+01      0.712377D+01

 Dipole polarizability, Alpha (dipole orientation).
 (esu units = cm**3 , SI units = C**2 m**2 J**-1)
 Alpha(0;0):
               (au)            (10**-24 esu)      (10**-40 SI)
   iso        0.830557D+03      0.123076D+03      0.136940D+03
   aniso      0.813239D+03      0.120510D+03      0.134085D+03
   xx         0.135059D+04      0.200137D+03      0.222683D+03
   yx        -0.153948D+02     -0.228127D+01     -0.253826D+01
   yy         0.510883D+03      0.757051D+02      0.842333D+02
   zx        -0.320489D+01     -0.474916D+00     -0.528415D+00
   zy        -0.117549D+03     -0.174190D+02     -0.193812D+02
   zz         0.630194D+03      0.933852D+02      0.103905D+03

 ----------------------------------------------------------------------
 Unable to Open any file for archive entry.
 1\1\GINC-NODE034\Freq\UwB97XD\GenECP\Gd3O3(1-,24)\AABOUTAKA\12-Jun-202
 5\0\\#P Geom=AllCheck Guess=TCheck SCRF=Check GenChk UwB97XD/GenECP Fr
 eq\\Title Card Required\\-1,24\Gd,-0.5935452138,2.6724664049,-0.421515
 391\Gd,-2.5085051318,-0.0312160387,0.2024658847\Gd,1.4156853865,0.0382
 903368,0.2038679788\O,1.3493437944,2.0744524319,0.3379826204\O,-0.5501
 508867,0.2244985053,-0.6595697746\O,-2.5146353252,2.0059682494,0.33676
 86817\\Version=EM64L-GDVRevJ.26+\State=24-A\HF=-2523.9250243\S2=144.21
 9279\S2-1=0.\S2A=143.757618\RMSD=1.752e-09\RMSF=9.911e-06\ZeroPoint=0.
 0078529\Thermal=0.0164379\ETot=-2523.9085864\HTot=-2523.9076422\GTot=-
 2523.9588261\Dipole=-0.00813,0.404339,-0.7364985\DipoleDeriv=-1.421808
 ,-0.0445279,0.0056369,-0.0445133,1.0878891,-0.3437672,0.0008282,-0.074
 1803,0.1087324,-2.1546324,0.0535964,-0.1686733,-2.2921529,0.5372782,0.
 138479,0.5410011,-0.0273686,-0.3138268,-2.2334753,-0.151722,0.1624298,
 2.1938841,0.6125813,0.1457269,-0.5403974,-0.0465956,-0.3145968,0.77517
 47,0.2298048,-0.1698406,-2.060604,-1.3756051,-0.0182448,0.1361655,-0.0
 567011,-0.2159555,3.328468,0.068611,-0.0004808,0.0692184,-0.5538604,0.
 0887232,-0.0042104,0.2665274,-0.0482272,0.706273,-0.1557623,0.170928,2
 .1341677,-1.308283,-0.0109171,-0.133387,-0.0616818,-0.2161261\Polar=13
 50.6542864,12.6235438,637.7508007,2.3006929,-113.537594,503.2667056\Qu
 adrupole=-4.2037081,-1.929389,6.1330971,-0.0336206,-0.0439841,2.211179
 2\PG=C01 [X(Gd3O3)]\NImag=0\\0.13709372,0.00062376,0.10214274,0.000893
 00,-0.04803447,0.05080886,-0.00502580,-0.02559987,0.00060018,0.0952886
 0,-0.05253994,-0.01703910,0.00862267,0.04101923,0.17398119,0.00040759,
 0.01056964,0.00611246,-0.03234637,-0.00635560,0.02089201,-0.00781860,0
 .02591191,-0.00091522,-0.03605267,-0.00960001,0.01059986,0.09816391,0.
 05286095,-0.01425633,0.00863110,0.00794426,0.01056867,-0.00135832,-0.0
 4367569,0.17094284,-0.00079067,0.01056294,0.00610881,-0.01056774,-0.00
 173671,0.00423122,0.03257116,-0.00523551,0.02093054,-0.05091035,0.0310
 4215,-0.03510148,0.00735692,0.01334473,-0.00130944,-0.01636353,-0.0094
 0211,-0.00471598,0.08393238,-0.01393110,-0.03268150,0.01279332,-0.0015
 6392,-0.01394606,-0.00209551,0.01481734,-0.13081825,-0.00430287,0.0039
 4575,0.14685030,-0.02025264,0.01449023,-0.02514408,0.00299425,0.004827
 84,-0.00086593,-0.00330415,-0.01206837,-0.00987764,0.03536471,0.010291
 30,0.02636737,-0.02304609,-0.00031715,-0.00007273,-0.04523017,-0.00569
 231,0.01778357,-0.04567814,0.00484718,-0.01788274,-0.00575889,-0.02098
 925,-0.00676197,0.12689215,-0.00032095,-0.00485457,0.00395507,-0.01103
 691,-0.02266770,0.00338931,0.01020701,-0.02210312,0.00276016,-0.019698
 80,0.00617227,-0.00957042,0.00161844,0.03585157,0.00004442,-0.00275991
 ,-0.01277893,0.03559072,0.00658665,-0.02049641,-0.03579255,0.00532103,
 -0.02052617,-0.00254002,-0.00901723,0.00380639,-0.00015567,0.00877820,
 0.04618274,-0.05029289,-0.03166081,0.03459626,-0.01633687,0.01346829,0
 .00486478,0.00774903,-0.01257459,0.00138598,-0.01825653,0.01772119,-0.
 00804021,-0.00717886,0.01923121,0.00285309,0.08431612,0.01330727,-0.03
 331123,0.01403232,-0.01076279,-0.13089699,-0.00414952,0.00233943,-0.01
 433380,-0.00204801,-0.01923172,0.02442324,-0.00797059,0.02053309,0.007
 60155,-0.00890874,-0.00618529,0.14651722,0.01969830,0.01517156,-0.0251
 0713,0.00372895,-0.01194485,-0.00987334,-0.00315910,0.00471007,-0.0008
 6676,0.00830221,-0.00766900,0.00571389,0.00708954,-0.00931232,0.003812
 38,-0.03565990,0.00904455,0.02632098\\0.00001040,0.00000689,-0.0000043
 0,0.00001514,0.00000881,-0.00000743,0.00001504,-0.00000509,0.00000606,
 -0.00000758,-0.00000180,-0.00000189,-0.00002557,0.00000267,0.00000269,
 -0.00000742,-0.00001148,0.00000488\\\@
 The archive entry for this job was punched.


 A successful marriage requires falling in love
 many times, always with the same person.
                           -- Mignon McLaughlin
 Job cpu time:       3 days 10 hours  5 minutes 36.9 seconds.
 Elapsed time:       0 days  1 hours 29 minutes 31.3 seconds.
 File lengths (MBytes):  RWF=    640 Int=      0 D2E=      0 Chk=     32 Scr=      2
 Normal termination of Gaussian DV at Thu Jun 12 19:44:22 2025.
