 Set GAUSS_MDEF to "92GB".
 Set GAUSS_PDEF to "56".
 Entering Gaussian System, Link 0=gdv
 Initial command:
 /home/hhratchian/gaussian/gdv-20250101-j30+/gdv/local/l1.exe "/scratch/aaboutaka/1560614/Gau-3599472.inp" -scrdir="/scratch/aaboutaka/1560614/"
 Default is to use a total of  56 processors:
                               56 via shared-memory
                                1 via Linda
 Entering Link 1 = /home/hhratchian/gaussian/gdv-20250101-j30+/gdv/local/l1.exe PID=   3599473.
  
 Copyright (c) 1988-2024, Gaussian, Inc.  All Rights Reserved.
  
 This is the private, development version of
 the Gaussian(R) DV system of programs. It is based on
 the Gaussian(R) 16 system (copyright 2016, Gaussian, Inc.),
 the Gaussian(R) 09 system (copyright 2009, Gaussian, Inc.),
 the Gaussian(R) 03 system (copyright 2003, Gaussian, Inc.),
 the Gaussian(R) 98 system (copyright 1998, Gaussian, Inc.),
 the Gaussian(R) 94 system (copyright 1995, Gaussian, Inc.),
 the Gaussian 92(TM) system (copyright 1992, Gaussian, Inc.),
 the Gaussian 90(TM) system (copyright 1990, Gaussian, Inc.),
 the Gaussian 88(TM) system (copyright 1988, Gaussian, Inc.),
 the Gaussian 86(TM) system (copyright 1986, Carnegie Mellon
 University), and the Gaussian 82(TM) system (copyright 1983,
 Carnegie Mellon University). Gaussian is a federally registered
 trademark of Gaussian, Inc.
  
 This software contains proprietary and confidential information,
 including trade secrets, belonging to Gaussian, Inc.
  
 This software is provided under written license and may be
 used, copied, transmitted, or stored only in accord with that
 written license.
  
 The following legend is applicable only to US Government
 contracts under FAR:
  
                    RESTRICTED RIGHTS LEGEND
  
 Use, reproduction and disclosure by the US Government is
 subject to restrictions as set forth in subparagraphs (a)
 and (c) of the Commercial Computer Software - Restricted
 Rights clause in FAR 52.227-19.
  
 Gaussian, Inc.
 340 Quinnipiac St., Bldg. 40, Wallingford CT 06492
  
  
 ---------------------------------------------------------------
 Warning -- This program may not be used in any manner that
 competes with the business of Gaussian, Inc. or will provide
 assistance to any competitor of Gaussian, Inc.  The licensee
 of this program is prohibited from giving any competitor of
 Gaussian, Inc. access to this program.  By using this program,
 the user acknowledges that Gaussian, Inc. is engaged in the
 business of creating and licensing software in the field of
 computational chemistry and represents and warrants to the
 licensee that it is not a competitor of Gaussian, Inc. and that
 it will not use this program in any manner prohibited above.
 ---------------------------------------------------------------
  

 Cite this work as:
 Gaussian Development Version, Revision J.30+,
 M. J. Frisch, G. W. Trucks, G. Scalmani, J. R. Cheeseman, X. Li, 
 J. Bloino, B. G. Janesko, A. V. Marenich, J. Zheng, F. Lipparini, 
 A. Jenkins, A. Liu, H. Liu, H. B. Schlegel, G. E. Scuseria, 
 M. A. Robb, V. Barone, G. A. Petersson, H. Nakatsuji, B. Mennucci, 
 C. Adamo, N. Rega, M. Caricato, H. P. Hratchian, J. V. Ortiz, 
 F. Pawlowski, A. F. Izmaylov, H. Hu, C. Liao, J. L. Sonnenberg, 
 D. Williams-Young, F. Ding, R. Gomperts, F. Egidi, J. Goings, 
 B. Peng, A. Petrone, T. Henderson, D. Ranasinghe, V. G. Zakrzewski, 
 J. Gao, G. Zheng, W. Liang, M. Hada, M. Ehara, K. Toyota, R. Fukuda, 
 J. Hasegawa, M. Ishida, T. Nakajima, Y. Honda, O. Kitao, H. Nakai, 
 T. Vreven, K. Throssell, J. A. Montgomery, Jr., J. E. Peralta, 
 F. Ogliaro, M. J. Bearpark, J. J. Heyd, E. N. Brothers, K. N. Kudin, 
 V. N. Staroverov, T. A. Keith, R. Kobayashi, J. Normand, 
 K. Raghavachari, A. P. Rendell, J. C. Burant, S. S. Iyengar, 
 M. Cossi, J. M. Millam, M. Klene, R. Cammi, R. L. Martin, O. Farkas, 
 J. B. Foresman, and D. J. Fox, Gaussian, Inc., Wallingford CT, 2024.
 
 *******************************************
 Gaussian DV:  ES64L-GDVRevJ.30+ 18-Dec-2024
                 28-Jul-2025 
 *******************************************
 %chk=h2o_neutral.chk
 -------------------
 #p B3LYP/6-31G freq
 -------------------
 1/10=4,30=1,37=210000000,38=1/1,3;
 2/12=2/2;
 3/5=1,6=6,11=2,25=1,30=1,71=2,74=-5/1,2,3;
 4//1;
 5/5=2,38=5,98=1/2;
 8/6=4,10=90,11=11/1;
 11/6=1,8=1,9=11,15=111,16=1/1,2,10;
 10/6=1/2;
 6/7=2,8=2,9=2,10=2,28=1/1;
 7/8=1,10=1,25=1/1,2,3,16;
 1/10=4,30=1/3;
 99//99;
 Leave Link    1 at Mon Jul 28 13:05:14 2025, MaxMem=           0 cpu:               2.6 elap:               0.1
 (Enter /home/hhratchian/gaussian/gdv-20250101-j30+/gdv/local/l101.exe)
 
  Hrant - IAPOps =                         0
  Hrant - IAPOp1 =                         0
  Hrant - IAPOp2 =                         0
  Hrant - DoAP   =   F
 
 -----------
 H2O neutral
 -----------
 Symbolic Z-matrix:
 Charge =     0 Multiplicity =     1
 O                     0.        0.        0.11779 
 H                     0.        0.75716  -0.47116 
 H                     0.       -0.75716  -0.47116 
 
 ITRead=  0  0  0
 MicOpt= -1 -1 -1
 NAtoms=      3 NQM=        3 NQMF=       0 NMMI=      0 NMMIF=      0
                NMic=       0 NMicF=      0.
                    Isotopes and Nuclear Properties:
 (Nuclear quadrupole moments (NQMom) in fm**2, nuclear magnetic moments (NMagM)
  in nuclear magnetons)

  Atom         1           2           3
 IAtWgt=          16           1           1
 AtmWgt=  15.9949146   1.0078250   1.0078250
 NucSpn=           0           1           1
 AtZEff=   -0.000000   -0.000000   -0.000000
 NQMom=    0.0000000   0.0000000   0.0000000
 NMagM=    0.0000000   2.7928460   2.7928460
 AtZNuc=   8.0000000   1.0000000   1.0000000
 Leave Link  101 at Mon Jul 28 13:05:14 2025, MaxMem= 12348030976 cpu:               1.4 elap:               0.1
 (Enter /home/hhratchian/gaussian/gdv-20250101-j30+/gdv/l103.exe)

 GradGradGradGradGradGradGradGradGradGradGradGradGradGradGradGradGradGrad
 Berny optimization.
 Initialization pass.
 Trust Radius=3.00D-01 FncErr=1.00D-07 GrdErr=1.00D-07 EigMax=2.50D+02 EigMin=1.00D-04
 Number of steps in this run=      2 maximum allowed number of steps=      2.
 GradGradGradGradGradGradGradGradGradGradGradGradGradGradGradGradGradGrad

 Leave Link  103 at Mon Jul 28 13:05:14 2025, MaxMem= 12348030976 cpu:               1.3 elap:               0.1
 (Enter /home/hhratchian/gaussian/gdv-20250101-j30+/gdv/l202.exe)
                          Input orientation:                          
 ---------------------------------------------------------------------
 Center     Atomic      Atomic             Coordinates (Angstroms)
 Number     Number       Type             X           Y           Z
 ---------------------------------------------------------------------
      1          8           0        0.000000    0.000000    0.117790
      2          1           0        0.000000    0.757160   -0.471160
      3          1           0       -0.000000   -0.757160   -0.471160
 ---------------------------------------------------------------------
                    Distance matrix (angstroms):
                    1          2          3
     1  O    0.000000
     2  H    0.959246   0.000000
     3  H    0.959246   1.514320   0.000000
 Stoichiometry    H2O
 Framework group  C2V[C2(O),SGV(H2)]
 Deg. of freedom     2
 Full point group                 C2V     NOp   4
 Largest Abelian subgroup         C2V     NOp   4
 Largest concise Abelian subgroup C2      NOp   2
                         Standard orientation:                         
 ---------------------------------------------------------------------
 Center     Atomic      Atomic             Coordinates (Angstroms)
 Number     Number       Type             X           Y           Z
 ---------------------------------------------------------------------
      1          8           0       -0.000000    0.000000    0.117790
      2          1           0        0.000000    0.757160   -0.471160
      3          1           0       -0.000000   -0.757160   -0.471160
 ---------------------------------------------------------------------
 Rotational constants (GHZ):         813.9366644         437.3475880         284.4863078
 Leave Link  202 at Mon Jul 28 13:05:14 2025, MaxMem= 12348030976 cpu:               1.4 elap:               0.0
 (Enter /home/hhratchian/gaussian/gdv-20250101-j30+/gdv/local/l301.exe)
 Standard basis: 6-31G (6D, 7F)
 Ernie: Thresh=  0.10000D-02 Tol=  0.10000D-05 Strict=F.
 There are     7 symmetry adapted cartesian basis functions of A1  symmetry.
 There are     0 symmetry adapted cartesian basis functions of A2  symmetry.
 There are     2 symmetry adapted cartesian basis functions of B1  symmetry.
 There are     4 symmetry adapted cartesian basis functions of B2  symmetry.
 There are     7 symmetry adapted basis functions of A1  symmetry.
 There are     0 symmetry adapted basis functions of A2  symmetry.
 There are     2 symmetry adapted basis functions of B1  symmetry.
 There are     4 symmetry adapted basis functions of B2  symmetry.
    13 basis functions,    30 primitive gaussians,    13 cartesian basis functions
     5 alpha electrons        5 beta electrons
       nuclear repulsion energy         9.1759991401 Hartrees.
 IExCor=      4002 DFT=T Ex+Corr=B3LYP ScaHFX=  0.200000
 ScaDFX=  0.800000  0.720000  1.000000  0.810000  1.000000  0.000000
 ScaDFX=  0.000000  0.000000  0.000000  0.000000  0.000000  0.000000
 Grid=UltraFine IRanWt=     -1 IRanGd=            0 ICorTp=0 IEDCtl=  2004
 NAtoms=    3 NActive=    3 NUniq=    2 SFac= 2.25D+00 NAtFMM=   60 NAOKFM=F Big=F
 Integral buffers will be    131072 words long.
 Raffenetti 2 integral format.
 Two-electron integral symmetry is turned on.
 Leave Link  301 at Mon Jul 28 13:05:14 2025, MaxMem= 12348030976 cpu:               0.2 elap:               0.0
 (Enter /home/hhratchian/gaussian/gdv-20250101-j30+/gdv/l302.exe)
 NPDir=0 NMtPBC=     1 NCelOv=     1 NCel=       1 NClECP=     1 NCelD=      1
         NCelK=      1 NCelE2=     1 NClLst=     1 CellRange=     0.0.
 One-electron integrals computed using PRISM.
 One-electron integral symmetry used in STVInt
 NBasis=    13 RedAO= T EigKep=  6.80D-02  NBF=     7     0     2     4
 NBsUse=    13 1.00D-06 EigRej= -1.00D+00 NBFU=     7     0     2     4
 Precomputing XC quadrature grid using
 IXCGrd=   9 Grid=UltraFine IRanWt=          -1 IRanGd=           0 AccXCQ= 0.00D+00.
 Generated NRdTot=       0 NPtTot=       68238 NUsed=           0 NTot=          64
 NSgBfM=    13    13    13    13    13 MxSgAt=     3 MxSgA2=     3 SizInc=   0.000
 NMBTot=      623 MaxBatPerAtom=       81 MaxMicBPerAtom=      209 NBfPt=              763372.
 Leave Link  302 at Mon Jul 28 13:05:14 2025, MaxMem= 12348030976 cpu:               3.6 elap:               0.1
 (Enter /home/hhratchian/gaussian/gdv-20250101-j30+/gdv/l303.exe)
 DipDrv:  MaxL=1.
 Leave Link  303 at Mon Jul 28 13:05:14 2025, MaxMem= 12348030976 cpu:               1.5 elap:               0.1
 (Enter /home/hhratchian/gaussian/gdv-20250101-j30+/gdv/l401.exe)
 ExpMin= 1.61D-01 ExpMax= 5.48D+03 ExpMxC= 8.25D+02 IAcc=3 Grid=UltraFine AccDes= 0.00D+00
 Harris functional with IExCor= 4002 and Grid=UltraFine diagonalized for initial guess.
 HarFok:  IExCor=    4002 AccDes= 0.00D+00 Grid=UltraFine IDoV= 1 UseB2=F ITyADJ=14 ICtDFT=  3500011
 FoFCou: FMM=F IPFlag=           0 FMFlag=      100000 FMFlg1=           0
         NFxFlg=           0 DoJE=T BraDBF=F KetDBF=T FulRan=T
         wScrn=  0.000000 ICntrl=       500 IOpCl=  0 I1Cent=   200000004 NGrid=           0
         NMat0=    1 NMatS0=      1 NMatT0=    0 NMatD0=    1 NMtDS0=    0 NMtDT0=    0
 Petite list used in FoFCou.
 Harris En= -76.4342863282510    
 JPrj=0 DoOrth=F DoCkMO=F.
 Initial guess orbital symmetries:
       Occupied  (A1) (A1) (B2) (A1) (B1)
       Virtual   (A1) (B2) (A1) (B2) (B1) (A1) (B2) (A1)
 The electronic state of the initial guess is 1-A1.
 Leave Link  401 at Mon Jul 28 13:05:14 2025, MaxMem= 12348030976 cpu:               4.1 elap:               0.1
 (Enter /home/hhratchian/gaussian/gdv-20250101-j30+/gdv/local/l502.exe)
 Keep R1 ints in memory in symmetry-blocked form, NReq=48382980.
 FoFCou: FMM=F IPFlag=           0 FMFlag=           0 FMFlg1=           0
         NFxFlg=           0 DoJE=F BraDBF=F KetDBF=F FulRan=T
         wScrn=  0.000000 ICntrl=       600 IOpCl=  0 I1Cent=           0 NGrid=           0
         NMat0=    1 NMatS0=     91 NMatT0=    0 NMatD0=    1 NMtDS0=    0 NMtDT0=    0
 Petite list used in FoFCou.
 Closed shell SCF:
 Using DIIS extrapolation, IDIIS=  1040.
 NGot= 12348030976 LenX= 12348026354 LenY= 12348025472
 Requested convergence on RMS density matrix=1.00D-08 within 128 cycles.
 Requested convergence on MAX density matrix=1.00D-06.
 Requested convergence on             energy=1.00D-06.
 No special actions if energy rises.
 Integral accuracy reduced to 1.0D-05 until final iterations.
 
  Hrant - CycOpn.
 

 Cycle   1  Pass 0  IDiag  1:
 E= -76.3032831940677    
 DIIS: error= 9.25D-02 at cycle   1 NSaved=   1.
 NSaved= 1 IEnMin= 1 EnMin= -76.3032831940677     IErMin= 1 ErrMin= 9.25D-02
 ErrMax= 9.25D-02  0.00D+00 EMaxC= 1.00D-01 BMatC= 5.30D-02 BMatP= 5.30D-02
 Rises=F IDIUse=3 WtCom= 7.47D-02 WtEn= 9.25D-01
 Coeff-Com:  0.100D+01
 Coeff-En:   0.100D+01
 Coeff:      0.100D+01
 Gap=     0.201 Goal=   None    Shift=    0.000
 GapD=    0.201 DampG=1.000 DampE=0.500 DampFc=0.5000 IDamp=-1.
 Damping current iteration by 5.00D-01
 RMSDP=4.29D-02 MaxDP=2.03D-01              OVMax= 2.04D-01

 Cycle   2  Pass 0  IDiag  1:
 E= -76.3310453576144     Delta-E=       -0.027762163547 Rises=F Damp=T AM=F Ri=F Fa=F
 DIIS: error= 2.03D-02 at cycle   2 NSaved=   2.
 NSaved= 2 IEnMin= 2 EnMin= -76.3310453576144     IErMin= 2 ErrMin= 2.03D-02
 ErrMax= 2.03D-02  0.00D+00 EMaxC= 1.00D-01 BMatC= 3.08D-03 BMatP= 5.30D-02
 Rises=F IDIUse=3 WtCom= 7.97D-01 WtEn= 2.03D-01
 Coeff-Com:  0.185D+00 0.815D+00
 Coeff-En:   0.302D+00 0.698D+00
 Coeff:      0.209D+00 0.791D+00
 Gap=     0.334 Goal=   None    Shift=    0.000
 RMSDP=5.21D-03 MaxDP=3.65D-02 DE=-2.78D-02 OVMax= 1.02D-01

 Cycle   3  Pass 0  IDiag  1:
 E= -76.3848538200626     Delta-E=       -0.053808462448 Rises=F Damp=F AM=F Ri=F Fa=F
 DIIS: error= 3.69D-03 at cycle   3 NSaved=   3.
 NSaved= 3 IEnMin= 3 EnMin= -76.3848538200626     IErMin= 3 ErrMin= 3.69D-03
 ErrMax= 3.69D-03  0.00D+00 EMaxC= 1.00D-01 BMatC= 1.05D-04 BMatP= 3.08D-03
 Rises=F IDIUse=3 WtCom= 9.78D-01 WtEn= 2.24D-02
 Coeff-Com:  0.315D-01-0.626D-01 0.103D+01
 Coeff-En:   0.000D+00 0.000D+00 0.100D+01
 Coeff:      0.307D-01-0.612D-01 0.103D+01
 Gap=     0.349 Goal=   None    Shift=    0.000
 RMSDP=7.07D-04 MaxDP=4.12D-03 DE=-5.38D-02 OVMax= 2.55D-03

 Cycle   4  Pass 0  IDiag  1:
 E= -76.3849997109377     Delta-E=       -0.000145890875 Rises=F Damp=F AM=F Ri=F Fa=F
 DIIS: error= 1.32D-04 at cycle   4 NSaved=   4.
 NSaved= 4 IEnMin= 4 EnMin= -76.3849997109377     IErMin= 4 ErrMin= 1.32D-04
 ErrMax= 1.32D-04  0.00D+00 EMaxC= 1.00D-01 BMatC= 1.05D-07 BMatP= 1.05D-04
 Rises=F IDIUse=3 WtCom= 1.00D+00 WtEn= 1.52D-04
 Coeff-Com:  0.180D-02-0.464D-02 0.349D-01 0.968D+00
 Coeff-En:   0.000D+00 0.000D+00 0.000D+00 0.100D+01
 Coeff:      0.180D-02-0.464D-02 0.349D-01 0.968D+00
 Gap=     0.349 Goal=   None    Shift=    0.000
 RMSDP=2.05D-05 MaxDP=1.32D-04 DE=-1.46D-04 OVMax= 6.61D-05

 Cycle   5  Pass 0  IDiag  1:
 E= -76.3849998612340     Delta-E=       -0.000000150296 Rises=F Damp=F AM=F Ri=F Fa=F
 DIIS: error= 1.41D-05 at cycle   5 NSaved=   5.
 NSaved= 5 IEnMin= 5 EnMin= -76.3849998612340     IErMin= 5 ErrMin= 1.41D-05
 ErrMax= 1.41D-05  0.00D+00 EMaxC= 1.00D-01 BMatC= 1.42D-09 BMatP= 1.05D-07
 Rises=F IDIUse=1 WtCom= 1.00D+00 WtEn= 0.00D+00
 Coeff-Com: -0.496D-05 0.252D-03-0.410D-02-0.363D-01 0.104D+01
 Coeff:     -0.496D-05 0.252D-03-0.410D-02-0.363D-01 0.104D+01
 Gap=     0.349 Goal=   None    Shift=    0.000
 RMSDP=2.97D-06 MaxDP=1.42D-05 DE=-1.50D-07 OVMax= 1.34D-05

 Initial convergence to 1.0D-05 achieved.  Increase integral accuracy.
 Cycle   6  Pass 1  IDiag  1:
 E= -76.3850009384220     Delta-E=       -0.000001077188 Rises=F Damp=F AM=F Ri=F Fa=F
 DIIS: error= 9.72D-07 at cycle   1 NSaved=   1.
 NSaved= 1 IEnMin= 1 EnMin= -76.3850009384220     IErMin= 1 ErrMin= 9.72D-07
 ErrMax= 9.72D-07  0.00D+00 EMaxC= 1.00D-01 BMatC= 6.03D-12 BMatP= 6.03D-12
 Rises=F IDIUse=1 WtCom= 1.00D+00 WtEn= 0.00D+00
 Coeff-Com:  0.100D+01
 Coeff:      0.100D+01
 Gap=     0.349 Goal=   None    Shift=    0.000
 RMSDP=2.97D-06 MaxDP=1.42D-05 DE=-1.08D-06 OVMax= 2.00D-06

 Cycle   7  Pass 1  IDiag  1:
 E= -76.3850009384146     Delta-E=        0.000000000007 Rises=F Damp=F AM=F Ri=F Fa=F
 DIIS: error= 1.27D-06 at cycle   2 NSaved=   2.
 NSaved= 2 IEnMin= 1 EnMin= -76.3850009384220     IErMin= 1 ErrMin= 9.72D-07
 ErrMax= 1.27D-06  0.00D+00 EMaxC= 1.00D-01 BMatC= 1.18D-11 BMatP= 6.03D-12
 Rises=F IDIUse=1 WtCom= 1.00D+00 WtEn= 0.00D+00
 Coeff-Com:  0.585D+00 0.415D+00
 Coeff:      0.585D+00 0.415D+00
 Gap=     0.349 Goal=   None    Shift=    0.000
 RMSDP=2.36D-07 MaxDP=1.10D-06 DE= 7.40D-12 OVMax= 1.10D-06

 Cycle   8  Pass 1  IDiag  1:
 E= -76.3850009384313     Delta-E=       -0.000000000017 Rises=F Damp=F AM=F Ri=F Fa=F
 DIIS: error= 1.40D-08 at cycle   3 NSaved=   3.
 NSaved= 3 IEnMin= 3 EnMin= -76.3850009384313     IErMin= 3 ErrMin= 1.40D-08
 ErrMax= 1.40D-08  0.00D+00 EMaxC= 1.00D-01 BMatC= 1.29D-15 BMatP= 6.03D-12
 Rises=F IDIUse=1 WtCom= 1.00D+00 WtEn= 0.00D+00
 Coeff-Com: -0.622D-02 0.125D-02 0.100D+01
 Coeff:     -0.622D-02 0.125D-02 0.100D+01
 Gap=     0.349 Goal=   None    Shift=    0.000
 RMSDP=5.75D-09 MaxDP=2.69D-08 DE=-1.68D-11 OVMax= 1.51D-08

 SCF Done:  E(RB3LYP) =  -76.3850009384     A.U. after    8 cycles
            NFock=  8  Conv=0.58D-08     -V/T= 2.0041
 KE=          76.069659 PE=        -199.095150 EE=          37.464491
 Leave Link  502 at Mon Jul 28 13:05:15 2025, MaxMem= 12348030976 cpu:               7.4 elap:               0.2
 (Enter /home/hhratchian/gaussian/gdv-20250101-j30+/gdv/l801.exe)
 DoSCS=F DFT=T ScalE2(SS,OS)=  1.000000  1.000000
 Range of M.O.s used for correlation:     1    13
 NBasis=    13 NAE=     5 NBE=     5 NFC=     0 NFV=     0
 NROrb=     13 NOA=     5 NOB=     5 NVA=     8 NVB=     8
 Leave Link  801 at Mon Jul 28 13:05:15 2025, MaxMem= 12348030976 cpu:               1.3 elap:               0.1
 (Enter /home/hhratchian/gaussian/gdv-20250101-j30+/gdv/l1101.exe)
 Using compressed storage, NAtomX=     3.
 Will process      4 centers per pass.
 Leave Link 1101 at Mon Jul 28 13:05:15 2025, MaxMem= 12348030976 cpu:               2.8 elap:               0.1
 (Enter /home/hhratchian/gaussian/gdv-20250101-j30+/gdv/l1102.exe)
 Symmetrizing basis deriv contribution to polar:
 IMax=3 JMax=2 DiffMx= 0.00D+00
 Leave Link 1102 at Mon Jul 28 13:05:15 2025, MaxMem= 12348030976 cpu:               0.2 elap:               0.0
 (Enter /home/hhratchian/gaussian/gdv-20250101-j30+/gdv/l1110.exe)
 Forming Gx(P) for the SCF density, NAtomX=     3.
 Integral derivatives from FoFJK, PRISM(SPDF).
 Do as many integral derivatives as possible in FoFJK.
 G2DrvN: MDV=   12348030509.
 G2DrvN: will do     4 centers at a time, making    1 passes.
 Calling FoFCou, ICntrl=  3107 FMM=F I1Cent=   0 AccDes= 0.00D+00.
 FoFJK:  IHMeth= 1 ICntrl=    3107 DoSepK=F KAlg= 0 I1Cent=           0 FoldK=F
 IRaf=         0 NMat=       1 IRICut=       1 DoRegI=T DoRafI=F ISym2E= 1 IDoP0=0 IntGTp=1.
 FoFCou: FMM=F IPFlag=           0 FMFlag=      100000 FMFlg1=           0
         NFxFlg=           0 DoJE=F BraDBF=F KetDBF=F FulRan=T
         wScrn=  0.000000 ICntrl=      3107 IOpCl=  0 I1Cent=           0 NGrid=           0
         NMat0=    1 NMatS0=      1 NMatT0=    0 NMatD0=    1 NMtDS0=    0 NMtDT0=    0
 Petite list used in FoFCou.
 End of G2Drv FD prop file    721 does not exist.
 End of G2Drv FD prop file    722 does not exist.
 End of G2Drv FD prop file    788 does not exist.
 End of G2Drv FD prop file    804 does not exist.
 Leave Link 1110 at Mon Jul 28 13:05:15 2025, MaxMem= 12348030976 cpu:               4.2 elap:               0.1
 (Enter /home/hhratchian/gaussian/gdv-20250101-j30+/gdv/l1002.exe)
 Minotr:  Closed shell wavefunction.
          IDoAtm=111
          Direct CPHF calculation.
          Differentiating once with respect to electric field.
                with respect to dipole field.
          Differentiating once with respect to nuclear coordinates.
          Using symmetry in CPHF.
          Requested convergence is 1.0D-08 RMS, and 1.0D-07 maximum.
          Secondary convergence is 1.0D-12 RMS, and 1.0D-12 maximum.
          NewPWx=T KeepS1=F KeepF1=F KeepIn=T MapXYZ=F SortEE=F KeepMc=T.
          996 words used for storage of precomputed grid.
 Keep R1 ints in memory in symmetry-blocked form, NReq=48199138.
 FoFCou: FMM=F IPFlag=           0 FMFlag=           0 FMFlg1=           0
         NFxFlg=           0 DoJE=F BraDBF=F KetDBF=F FulRan=T
         wScrn=  0.000000 ICntrl=       600 IOpCl=  0 I1Cent=           0 NGrid=           0
         NMat0=    1 NMatS0=     91 NMatT0=    0 NMatD0=    1 NMtDS0=    0 NMtDT0=    0
 Petite list used in FoFCou.
          MDV=   12348030976 using Grid=Medium.
          Solving linear equations simultaneously, MaxMat=       0.
          There are     9 degrees of freedom in the 1st order CPHF.  IDoFFX=4 NUNeed=     9.
      9 vectors produced by pass  0 Test12= 4.44D-16 1.11D-08 XBig12= 3.23D+00 1.34D+00.
 AX will form     9 AO Fock derivatives at one time.
      9 vectors produced by pass  1 Test12= 4.44D-16 1.11D-08 XBig12= 3.28D-01 2.94D-01.
      9 vectors produced by pass  2 Test12= 4.44D-16 1.11D-08 XBig12= 2.33D-03 3.10D-02.
      8 vectors produced by pass  3 Test12= 4.44D-16 1.11D-08 XBig12= 8.43D-07 5.68D-04.
      3 vectors produced by pass  4 Test12= 4.44D-16 1.11D-08 XBig12= 2.21D-11 3.46D-06.
      1 vectors produced by pass  5 Test12= 4.44D-16 1.11D-08 XBig12= 2.52D-15 2.58D-08.
 InvSVY:  IOpt=1 It=  1 EMax= 4.44D-16
 Solved reduced A of dimension    39 with     9 vectors.
 FullF1:  Do perturbations      1 to       9.
 Isotropic polarizability for W=    0.000000        4.44 Bohr**3.
 End of Minotr FD prop file    721 does not exist.
 End of Minotr FD prop file    722 does not exist.
 End of Minotr FD prop file    788 does not exist.
 End of Minotr FD prop file    804 does not exist.
 Leave Link 1002 at Mon Jul 28 13:05:16 2025, MaxMem= 12348030976 cpu:              45.6 elap:               0.9
 (Enter /home/hhratchian/gaussian/gdv-20250101-j30+/gdv/l601.exe)
 Copying SCF densities to generalized density rwf, IOpCl= 0 IROHF=0.
 
 **********************************************************************
 
               Population analysis using the SCF Density.
 
 **********************************************************************
 
 Orbital symmetries:
       Occupied  (A1) (A1) (B2) (A1) (B1)
       Virtual   (A1) (B2) (B2) (A1) (B1) (A1) (B2) (A1)
 The electronic state is 1-A1.
 Alpha  occ. eigenvalues --      -19.13354      -1.01865      -0.52971      -0.35696      -0.29233
 Alpha virt. eigenvalues --        0.05692       0.14692       0.80995       0.87739       0.88912
 Alpha virt. eigenvalues --        0.95834       1.06844       1.42364
          Condensed to atoms (all electrons):
               1          2          3
     1  O    8.217744   0.244107   0.244107
     2  H    0.244107   0.440568  -0.037655
     3  H    0.244107  -0.037655   0.440568
 Mulliken charges:
               1
     1  O   -0.705958
     2  H    0.352979
     3  H    0.352979
 Sum of Mulliken charges=  -0.00000
 Mulliken charges with hydrogens summed into heavy atoms:
               1
     1  O   -0.000000
 APT charges:
               1
     1  O   -0.495449
     2  H    0.247725
     3  H    0.247725
 Sum of APT charges=  -0.00000
 APT charges with hydrogens summed into heavy atoms:
               1
     1  O   -0.000000
 Electronic spatial extent (au):  <R**2>=             19.1875
 Charge=              0.0000 electrons
 Dipole moment (field-independent basis, Debye):
    X=             -0.0000    Y=              0.0000    Z=             -2.4637  Tot=              2.4637
 Quadrupole moment (field-independent basis, Debye-Ang):
   XX=             -7.1647   YY=             -4.3240   ZZ=             -6.1463
   XY=              0.0000   XZ=              0.0000   YZ=              0.0000
 Traceless Quadrupole moment (field-independent basis, Debye-Ang):
   XX=             -1.2864   YY=              1.5544   ZZ=             -0.2680
   XY=              0.0000   XZ=              0.0000   YZ=              0.0000
 Octapole moment (field-independent basis, Debye-Ang**2):
  XXX=              0.0000  YYY=              0.0000  ZZZ=             -1.3653  XYY=             -0.0000
  XXY=             -0.0000  XXZ=             -0.3906  XZZ=             -0.0000  YZZ=             -0.0000
  YYZ=             -1.1169  XYZ=             -0.0000
 Hexadecapole moment (field-independent basis, Debye-Ang**3):
 XXXX=             -5.1542 YYYY=             -6.0657 ZZZZ=             -6.3071 XXXY=             -0.0000
 XXXZ=             -0.0000 YYYX=             -0.0000 YYYZ=             -0.0000 ZZZX=             -0.0000
 ZZZY=             -0.0000 XXYY=             -2.0780 XXZZ=             -1.9561 YYZZ=             -1.7851
 XXYZ=              0.0000 YYXZ=              0.0000 ZZXY=             -0.0000
 N-N=           9.175999 E-N=        -199.095150  KE=          76.069659
 Symmetry A1   KE=          67.896006
 Symmetry A2   KE=           0.000000
 Symmetry B1   KE=           4.610546
 Symmetry B2   KE=           3.563107
 No NMR shielding tensors so no spin-rotation constants.
 Leave Link  601 at Mon Jul 28 13:05:16 2025, MaxMem= 12348030976 cpu:               5.6 elap:               0.1
 (Enter /home/hhratchian/gaussian/gdv-20250101-j30+/gdv/l701.exe)
 ... and contract with generalized density number  0.
 Compute integral second derivatives.
 Leave Link  701 at Mon Jul 28 13:05:16 2025, MaxMem= 12348030976 cpu:               4.1 elap:               0.1
 (Enter /home/hhratchian/gaussian/gdv-20250101-j30+/gdv/l702.exe)
 L702 exits ... SP integral derivatives will be done elsewhere.
 Leave Link  702 at Mon Jul 28 13:05:16 2025, MaxMem= 12348030976 cpu:               1.3 elap:               0.1
 (Enter /home/hhratchian/gaussian/gdv-20250101-j30+/gdv/l703.exe)
 Integral derivatives from FoFJK, PRISM(SPDF).
 Compute integral second derivatives, UseDBF=F ICtDFT=           0.
 Calling FoFJK, ICntrl=    100127 FMM=F ISym2X=1 I1Cent= 0 IOpClX= 0 NMat=1 NMatS=1 NMatT=0.
 FoFJK:  IHMeth= 1 ICntrl=  100127 DoSepK=F KAlg= 0 I1Cent=           0 FoldK=F
 IRaf=         0 NMat=       1 IRICut=       1 DoRegI=T DoRafI=F ISym2E= 1 IDoP0=0 IntGTp=1.
 FoFCou: FMM=F IPFlag=           0 FMFlag=      100000 FMFlg1=         800
         NFxFlg=           0 DoJE=F BraDBF=F KetDBF=F FulRan=T
         wScrn=  0.000000 ICntrl=    100127 IOpCl=  0 I1Cent=           0 NGrid=           0
         NMat0=    1 NMatS0=      1 NMatT0=    0 NMatD0=    1 NMtDS0=    0 NMtDT0=    0
 Petite list used in FoFCou.
 Leave Link  703 at Mon Jul 28 13:05:17 2025, MaxMem= 12348030976 cpu:               5.8 elap:               0.2
 (Enter /home/hhratchian/gaussian/gdv-20250101-j30+/gdv/l716.exe)
 Dipole        =-5.79302695D-17 2.95881562D-17-9.69280155D-01
 Polarizability= 1.48029947D+00 3.67266789D-16 6.98751855D+00
                 2.68586272D-16 1.12391122D-12 4.83978168D+00
 Full mass-weighted force constant matrix:
 Low frequencies --- -608.5029 -538.7004 -371.9677   -0.0020    0.0006    0.0014
 Low frequencies --- 1618.3906 3858.4227 3987.8787
 Diagonal vibrational polarizability:
        0.0000000       0.0080274       0.6398929
 Harmonic frequencies (cm**-1), IR intensities (KM/Mole), Raman scattering
 activities (A**4/AMU), depolarization ratios for plane and unpolarized
 incident light, reduced masses (AMU), force constants (mDyne/A),
 and normal coordinates:
                      1                      2                      3
                     A1                     A1                     B2
 Frequencies --   1618.3906              3858.4227              3987.7840
 Red. masses --      1.0881                 1.0402                 1.0816
 Frc consts  --      1.6791                 9.1237                10.1340
 IR Inten    --     61.5862                 3.9373                 4.7435
  Atom  AN      X      Y      Z        X      Y      Z        X      Y      Z
     1   8    -0.00  -0.00  -0.07     0.00   0.00   0.05    -0.00  -0.07   0.00
     2   1     0.00   0.40   0.58     0.00   0.60  -0.37     0.00   0.56  -0.43
     3   1     0.00  -0.40   0.58    -0.00  -0.60  -0.37     0.00   0.56   0.43

 -------------------
 - Thermochemistry -
 -------------------
 Temperature 298.150 Kelvin.  Pressure 1.00000 Atm.
 Atom     1 has atomic number  8 and mass  15.99491
 Atom     2 has atomic number  1 and mass   1.00783
 Atom     3 has atomic number  1 and mass   1.00783
 Molecular mass:    18.01056 amu.
 Principal axes and moments of inertia in atomic units:
                                 1                 2                 3
     Eigenvalues --            2.217299          4.126560          6.343860
           X                  -0.000000          0.000000          1.000000
           Y                   1.000000          0.000000          0.000000
           Z                  -0.000000          1.000000         -0.000000
 This molecule is an asymmetric top.
 Rotational symmetry number  2.
 Rotational temperatures (Kelvin)     39.06280    20.98938    13.65319
 Rotational constants (GHZ):         813.93666   437.34759   284.48631
 Zero-point vibrational energy      56610.9 (Joules/Mol)
                                   13.53032 (Kcal/Mol)
 Vibrational temperatures:   2328.50  5551.41  5737.53
          (Kelvin)
 
 Zero-point correction=                           0.021562 (Hartree/Particle)
 Thermal correction to Energy=                    0.024397
 Thermal correction to Enthalpy=                  0.025342
 Thermal correction to Gibbs Free Energy=         0.003925
 Sum of electronic and zero-point Energies=            -76.363439
 Sum of electronic and thermal Energies=               -76.360603
 Sum of electronic and thermal Enthalpies=             -76.359659
 Sum of electronic and thermal Free Energies=          -76.381076
 
                     E (Thermal)             CV                S
                      KCal/Mol        Cal/Mol-Kelvin    Cal/Mol-Kelvin
 Total                   15.310              6.011             45.076
 Electronic               0.000              0.000              0.000
 Translational            0.889              2.981             34.608
 Rotational               0.889              2.981             10.461
 Vibrational             13.532              0.049              0.007
                       Q            Log10(Q)             Ln(Q)
 Total Bot       0.156612D-01         -1.805175         -4.156569
 Total V=0       0.129604D+09          8.112620         18.679997
 Vib (Bot)       0.120888D-09         -9.917618        -22.836160
 Vib (V=0)       0.100041D+01          0.000176          0.000406
 Electronic      0.100000D+01          0.000000          0.000000
 Translational   0.300431D+07          6.477745         14.915559
 Rotational      0.431220D+02          1.634699          3.764033
 
                                                             H2O neutral
                                                             IR Spectrum
 
     3    3                                                                      1                                                   
     9    8                                                                      6                                                   
     8    5                                                                      1                                                   
     8    8                                                                      8                                                   
 
     X    X                                                                      X                                                   
     X                                                                           X                                                   
                                                                                 X                                                   
                                                                                 X                                                   
                                                                                 X                                                   
                                                                                 X                                                   
                                                                                 X                                                   
                                                                                 X                                                   
                                                                                 X                                                   
                                                                                 X                                                   
                                                                                 X                                                   
                                                                                 X                                                   
                                                                                 X                                                   
                                                                                 X                                                   
                                                                                 X                                                   
                                                                                 X                                                   
                                                                                 X                                                   
                                                                                 X                                                   
                                                                                 X                                                   
                                                                                 X                                                   
 
 ***** Axes restored to original set *****
 -------------------------------------------------------------------
 Center     Atomic                   Forces (Hartrees/Bohr)
 Number     Number              X              Y              Z
 -------------------------------------------------------------------
      1        8          -0.000000000   -0.000000000    0.010473551
      2        1          -0.000000000    0.020233772   -0.005236776
      3        1           0.000000000   -0.020233772   -0.005236776
 -------------------------------------------------------------------
 Cartesian Forces:  Max     0.020233772 RMS     0.010452825
 Z-matrix is all fixed cartesians, so copy forces.
 Force constants in Cartesian coordinates: 
                1             2             3             4             5 
      1 -0.937285D-02
      2  0.000000D+00  0.701036D+00
      3  0.000000D+00  0.000000D+00  0.423791D+00
      4  0.468642D-02  0.000000D+00  0.000000D+00 -0.940431D-02
      5  0.000000D+00 -0.350518D+00  0.201374D+00  0.000000D+00  0.389808D+00
      6  0.000000D+00  0.276297D+00 -0.211895D+00  0.000000D+00 -0.238835D+00
      7  0.468642D-02  0.000000D+00  0.000000D+00  0.471788D-02  0.000000D+00
      8  0.000000D+00 -0.350518D+00 -0.201374D+00  0.000000D+00 -0.392899D-01
      9  0.000000D+00 -0.276297D+00 -0.211895D+00  0.000000D+00  0.374619D-01
                6             7             8             9 
      6  0.206339D+00
      7  0.000000D+00 -0.940431D-02
      8 -0.374619D-01  0.000000D+00  0.389808D+00
      9  0.555588D-02  0.000000D+00  0.238835D+00  0.206339D+00
 Leave Link  716 at Mon Jul 28 13:05:17 2025, MaxMem= 12348030976 cpu:               2.4 elap:               0.1
 (Enter /home/hhratchian/gaussian/gdv-20250101-j30+/gdv/l103.exe)

 GradGradGradGradGradGradGradGradGradGradGradGradGradGradGradGradGradGrad
 Berny optimization.
 Search for a local minimum.
 Step number   1 out of a maximum of    2
 All quantities printed in internal units (Hartrees-Bohrs-Radians)
 Second derivative matrix not updated -- analytic derivatives used.
 The second derivative matrix:
                          X1        Y1        Z1        X2        Y2
           X1          -0.00937
           Y1          -0.00000   0.70104
           Z1          -0.00000  -0.00000   0.42379
           X2           0.00469  -0.00000   0.00000  -0.00940
           Y2          -0.00000  -0.35052   0.20137   0.00000   0.38981
           Z2           0.00000   0.27630  -0.21190  -0.00000  -0.23884
           X3           0.00469  -0.00000  -0.00000   0.00472  -0.00000
           Y3           0.00000  -0.35052  -0.20137  -0.00000  -0.03929
           Z3           0.00000  -0.27630  -0.21190   0.00000   0.03746
                          Z2        X3        Y3        Z3
           Z2           0.20634
           X3          -0.00000  -0.00940
           Y3          -0.03746   0.00000   0.38981
           Z3           0.00556   0.00000   0.23884   0.20634
 ITU=  0
     Eigenvalues ---    0.15237   0.77073   1.01170
 Angle between quadratic step and forces=  43.07 degrees.
 ClnCor:  largest displacement from symmetrization is 1.73D-15 for atom     3.
 Linear search not attempted -- first point.
 ClnCor:  largest displacement from symmetrization is 1.11D-16 for atom     3.
 B after Tr=     0.000000    0.000000   -0.009159
         Rot=    1.000000    0.000000   -0.000000    0.000000 Ang=   0.00 deg.
 Variable       Old X    -DE/DX   Delta X   Delta X   Delta X     New X
                                 (Linear)    (Quad)   (Total)
    X1       -0.00000  -0.00000   0.00000  -0.00000   0.00000   0.00000
    Y1       -0.00000  -0.00000   0.00000   0.00000   0.00000  -0.00000
    Z1        0.22259   0.01047   0.00000  -0.01503  -0.02419   0.19840
    X2        0.00000  -0.00000   0.00000   0.00000   0.00000   0.00000
    Y2        1.43083   0.02023   0.00000   0.06418   0.06418   1.49500
    Z2       -0.89036  -0.00524   0.00000   0.02125   0.01209  -0.87827
    X3       -0.00000   0.00000   0.00000  -0.00000  -0.00000  -0.00000
    Y3       -1.43083  -0.02023   0.00000  -0.06418  -0.06418  -1.49500
    Z3       -0.89036  -0.00524   0.00000   0.02125   0.01209  -0.87827
         Item               Value     Threshold  Converged?
 Maximum Force            0.020234     0.000450     NO 
 RMS     Force            0.010453     0.000300     NO 
 Maximum Displacement     0.064180     0.001800     NO 
 RMS     Displacement     0.031825     0.001200     NO 
 Predicted change in Energy=-1.108613D-03
 GradGradGradGradGradGradGradGradGradGradGradGradGradGradGradGradGradGrad

 Leave Link  103 at Mon Jul 28 13:05:17 2025, MaxMem= 12348030976 cpu:               2.3 elap:               0.1
 (Enter /home/hhratchian/gaussian/gdv-20250101-j30+/gdv/local/l9999.exe)

 ----------------------------------------------------------------------

 Electric dipole moment (input orientation):
 (Debye = 10**-18 statcoulomb cm , SI units = C m)
                  (au)            (Debye)         (10**-30 SI)
   Tot        0.969280D+00      0.246366D+01      0.821790D+01
   x          0.000000D+00      0.000000D+00      0.000000D+00
   y          0.000000D+00      0.000000D+00      0.000000D+00
   z         -0.969280D+00     -0.246366D+01     -0.821790D+01

 Dipole polarizability, Alpha (input orientation).
 (esu units = cm**3 , SI units = C**2 m**2 J**-1)
 Alpha(0;0):
               (au)            (10**-24 esu)      (10**-40 SI)
   iso        0.443587D+01      0.657328D+00      0.731376D+00
   aniso      0.480772D+01      0.712431D+00      0.792686D+00
   xx         0.148030D+01      0.219358D+00      0.244068D+00
   yx         0.000000D+00      0.000000D+00      0.000000D+00
   yy         0.698752D+01      0.103544D+01      0.115209D+01
   zx         0.000000D+00      0.000000D+00      0.000000D+00
   zy         0.000000D+00      0.000000D+00      0.000000D+00
   zz         0.483978D+01      0.717182D+00      0.797972D+00

 ----------------------------------------------------------------------

 Dipole orientation:
     8         -0.00000000         -0.00000000         -0.22259084
     1          0.00000000         -1.43082503          0.89036336
     1         -0.00000000          1.43082503          0.89036336

 Electric dipole moment (dipole orientation):
 (Debye = 10**-18 statcoulomb cm , SI units = C m)
                  (au)            (Debye)         (10**-30 SI)
   Tot        0.969280D+00      0.246366D+01      0.821790D+01
   x          0.000000D+00      0.000000D+00      0.000000D+00
   y          0.000000D+00      0.000000D+00      0.000000D+00
   z          0.969280D+00      0.246366D+01      0.821790D+01

 Dipole polarizability, Alpha (dipole orientation).
 (esu units = cm**3 , SI units = C**2 m**2 J**-1)
 Alpha(0;0):
               (au)            (10**-24 esu)      (10**-40 SI)
   iso        0.443587D+01      0.657328D+00      0.731376D+00
   aniso      0.480772D+01      0.712431D+00      0.792686D+00
   xx         0.148030D+01      0.219358D+00      0.244068D+00
   yx         0.000000D+00      0.000000D+00      0.000000D+00
   yy         0.698752D+01      0.103544D+01      0.115209D+01
   zx         0.000000D+00      0.000000D+00      0.000000D+00
   zy         0.000000D+00      0.000000D+00      0.000000D+00
   zz         0.483978D+01      0.717182D+00      0.797972D+00

 ----------------------------------------------------------------------
 Unable to Open any file for archive entry.
 1\1\GINC-HMNODE007\Freq\RB3LYP\6-31G\H2O1\AABOUTAKA\28-Jul-2025\0\\#p 
 B3LYP/6-31G freq\\H2O neutral\\0,1\O,0.,0.,0.11779\H,0.,0.75716,-0.471
 16\H,0.,-0.75716,-0.47116\\Version=ES64L-GDVRevJ.30+\State=1-A1\HF=-76
 .3850009\RMSD=5.751e-09\RMSF=1.045e-02\ZeroPoint=0.0215619\Thermal=0.0
 243975\ETot=-76.3606035\HTot=-76.3596593\GTot=-76.3810764\Dipole=0.,0.
 ,-0.9692802\DipoleDeriv=-0.8709039,0.,0.,0.,-0.379669,0.,0.,0.,-0.2357
 743,0.435452,0.,0.,0.,0.1898345,0.1349821,0.,0.1910518,0.1178872,0.435
 452,0.,0.,0.,0.1898345,-0.1349821,0.,-0.1910518,0.1178872\Polar=1.4802
 995,0.,6.9875185,0.,0.,4.8397817\Quadrupole=-0.9563875,1.1556312,-0.19
 92437,0.,0.,0.\PG=C02V [C2(O1),SGV(H2)]\NImag=0\\-0.00937285,0.,0.7010
 3625,0.,0.,0.42379072,0.00468642,0.,0.,-0.00940431,0.,-0.35051813,0.20
 137351,0.,0.38980802,0.,0.27629732,-0.21189536,0.,-0.23883542,0.206339
 48,0.00468642,0.,0.,0.00471788,0.,0.,-0.00940431,0.,-0.35051813,-0.201
 37351,0.,-0.03928989,-0.03746191,0.,0.38980802,0.,-0.27629732,-0.21189
 536,0.,0.03746191,0.00555588,0.,0.23883542,0.20633948\\0.,0.,-0.010473
 55,0.,-0.02023377,0.00523678,0.,0.02023377,0.00523678\\\@
 The archive entry for this job was punched.


 THE MOST SERIOUS THREAT TO THE SURVIVAL OF MANKIND IS NOT NOW
 IGNORANCE IN THE TRADITIONAL SENSE,
 BUT A MORALLY NEUTRAL, AN INSENSITIVE OR INHIBITED HUMAN INTELLIGENCE.

                     -- MARGO JEFFERSON IN NEWSWEEK, SEPTEMBER 2, 1974
 Job cpu time:       0 days  0 hours  1 minutes 41.9 seconds.
 Elapsed time:       0 days  0 hours  0 minutes  2.7 seconds.
 File lengths (MBytes):  RWF=     22 Int=      0 D2E=      0 Chk=      2 Scr=      2
 Normal termination of Gaussian DV at Mon Jul 28 13:05:17 2025.
