 Set GAUSS_MDEF to "92GB".
 Set GAUSS_PDEF to "56".
 Entering Gaussian System, Link 0=gdv
 Initial command:
 /home/hhratchian/gaussian/gdv-20250101-j30+/gdv/local/l1.exe "/scratch/aaboutaka/1561495/Gau-395161.inp" -scrdir="/scratch/aaboutaka/1561495/"
 Default is to use a total of  56 processors:
                               56 via shared-memory
                                1 via Linda
 Entering Link 1 = /home/hhratchian/gaussian/gdv-20250101-j30+/gdv/local/l1.exe PID=    395162.
  
 Copyright (c) 1988-2024, Gaussian, Inc.  All Rights Reserved.
  
 This is the private, development version of
 the Gaussian(R) DV system of programs. It is based on
 the Gaussian(R) 16 system (copyright 2016, Gaussian, Inc.),
 the Gaussian(R) 09 system (copyright 2009, Gaussian, Inc.),
 the Gaussian(R) 03 system (copyright 2003, Gaussian, Inc.),
 the Gaussian(R) 98 system (copyright 1998, Gaussian, Inc.),
 the Gaussian(R) 94 system (copyright 1995, Gaussian, Inc.),
 the Gaussian 92(TM) system (copyright 1992, Gaussian, Inc.),
 the Gaussian 90(TM) system (copyright 1990, Gaussian, Inc.),
 the Gaussian 88(TM) system (copyright 1988, Gaussian, Inc.),
 the Gaussian 86(TM) system (copyright 1986, Carnegie Mellon
 University), and the Gaussian 82(TM) system (copyright 1983,
 Carnegie Mellon University). Gaussian is a federally registered
 trademark of Gaussian, Inc.
  
 This software contains proprietary and confidential information,
 including trade secrets, belonging to Gaussian, Inc.
  
 This software is provided under written license and may be
 used, copied, transmitted, or stored only in accord with that
 written license.
  
 The following legend is applicable only to US Government
 contracts under FAR:
  
                    RESTRICTED RIGHTS LEGEND
  
 Use, reproduction and disclosure by the US Government is
 subject to restrictions as set forth in subparagraphs (a)
 and (c) of the Commercial Computer Software - Restricted
 Rights clause in FAR 52.227-19.
  
 Gaussian, Inc.
 340 Quinnipiac St., Bldg. 40, Wallingford CT 06492
  
  
 ---------------------------------------------------------------
 Warning -- This program may not be used in any manner that
 competes with the business of Gaussian, Inc. or will provide
 assistance to any competitor of Gaussian, Inc.  The licensee
 of this program is prohibited from giving any competitor of
 Gaussian, Inc. access to this program.  By using this program,
 the user acknowledges that Gaussian, Inc. is engaged in the
 business of creating and licensing software in the field of
 computational chemistry and represents and warrants to the
 licensee that it is not a competitor of Gaussian, Inc. and that
 it will not use this program in any manner prohibited above.
 ---------------------------------------------------------------
  

 Cite this work as:
 Gaussian Development Version, Revision J.30+,
 M. J. Frisch, G. W. Trucks, G. Scalmani, J. R. Cheeseman, X. Li, 
 J. Bloino, B. G. Janesko, A. V. Marenich, J. Zheng, F. Lipparini, 
 A. Jenkins, A. Liu, H. Liu, H. B. Schlegel, G. E. Scuseria, 
 M. A. Robb, V. Barone, G. A. Petersson, H. Nakatsuji, B. Mennucci, 
 C. Adamo, N. Rega, M. Caricato, H. P. Hratchian, J. V. Ortiz, 
 F. Pawlowski, A. F. Izmaylov, H. Hu, C. Liao, J. L. Sonnenberg, 
 D. Williams-Young, F. Ding, R. Gomperts, F. Egidi, J. Goings, 
 B. Peng, A. Petrone, T. Henderson, D. Ranasinghe, V. G. Zakrzewski, 
 J. Gao, G. Zheng, W. Liang, M. Hada, M. Ehara, K. Toyota, R. Fukuda, 
 J. Hasegawa, M. Ishida, T. Nakajima, Y. Honda, O. Kitao, H. Nakai, 
 T. Vreven, K. Throssell, J. A. Montgomery, Jr., J. E. Peralta, 
 F. Ogliaro, M. J. Bearpark, J. J. Heyd, E. N. Brothers, K. N. Kudin, 
 V. N. Staroverov, T. A. Keith, R. Kobayashi, J. Normand, 
 K. Raghavachari, A. P. Rendell, J. C. Burant, S. S. Iyengar, 
 M. Cossi, J. M. Millam, M. Klene, R. Cammi, R. L. Martin, O. Farkas, 
 J. B. Foresman, and D. J. Fox, Gaussian, Inc., Wallingford CT, 2024.
 
 *******************************************
 Gaussian DV:  ES64L-GDVRevJ.30+ 18-Dec-2024
                 30-Jul-2025 
 *******************************************
 %chk=h2o_neutral.chk
 ---------------------
 #p uB3LYP/STO-3G freq
 ---------------------
 1/10=4,30=1,37=210000000,38=1/1,3;
 2/12=2/2;
 3/6=3,11=2,25=1,30=1,71=2,74=-5,116=2/1,2,3;
 4//1;
 5/5=2,38=5,98=1/2;
 8/6=4,10=90,11=11/1;
 11/6=1,8=1,9=11,15=111,16=1/1,2,10;
 10/6=1/2;
 6/7=2,8=2,9=2,10=2,28=1/1;
 7/8=1,10=1,25=1/1,2,3,16;
 1/10=4,30=1/3;
 99//99;
 Leave Link    1 at Wed Jul 30 07:45:14 2025, MaxMem=           0 cpu:               0.2 elap:               0.0
 (Enter /home/hhratchian/gaussian/gdv-20250101-j30+/gdv/local/l101.exe)
 
  Hrant - IAPOps =                         0
  Hrant - IAPOp1 =                         0
  Hrant - IAPOp2 =                         0
  Hrant - DoAP   =   F
 
 -----------
 H2O neutral
 -----------
 Symbolic Z-matrix:
 Charge =     0 Multiplicity =     1
 O                     0.        0.        0.11779 
 H                     0.        0.75716  -0.47116 
 H                     0.       -0.75716  -0.47116 
 
 ITRead=  0  0  0
 MicOpt= -1 -1 -1
 NAtoms=      3 NQM=        3 NQMF=       0 NMMI=      0 NMMIF=      0
                NMic=       0 NMicF=      0.
                    Isotopes and Nuclear Properties:
 (Nuclear quadrupole moments (NQMom) in fm**2, nuclear magnetic moments (NMagM)
  in nuclear magnetons)

  Atom         1           2           3
 IAtWgt=          16           1           1
 AtmWgt=  15.9949146   1.0078250   1.0078250
 NucSpn=           0           1           1
 AtZEff=   -0.000000   -0.000000   -0.000000
 NQMom=    0.0000000   0.0000000   0.0000000
 NMagM=    0.0000000   2.7928460   2.7928460
 AtZNuc=   8.0000000   1.0000000   1.0000000
 Leave Link  101 at Wed Jul 30 07:45:14 2025, MaxMem= 12348030976 cpu:               0.3 elap:               0.1
 (Enter /home/hhratchian/gaussian/gdv-20250101-j30+/gdv/l103.exe)

 GradGradGradGradGradGradGradGradGradGradGradGradGradGradGradGradGradGrad
 Berny optimization.
 Initialization pass.
 Trust Radius=3.00D-01 FncErr=1.00D-07 GrdErr=1.00D-07 EigMax=2.50D+02 EigMin=1.00D-04
 Number of steps in this run=      2 maximum allowed number of steps=      2.
 GradGradGradGradGradGradGradGradGradGradGradGradGradGradGradGradGradGrad

 Leave Link  103 at Wed Jul 30 07:45:14 2025, MaxMem= 12348030976 cpu:               0.1 elap:               0.0
 (Enter /home/hhratchian/gaussian/gdv-20250101-j30+/gdv/l202.exe)
                          Input orientation:                          
 ---------------------------------------------------------------------
 Center     Atomic      Atomic             Coordinates (Angstroms)
 Number     Number       Type             X           Y           Z
 ---------------------------------------------------------------------
      1          8           0        0.000000    0.000000    0.117790
      2          1           0        0.000000    0.757160   -0.471160
      3          1           0       -0.000000   -0.757160   -0.471160
 ---------------------------------------------------------------------
                    Distance matrix (angstroms):
                    1          2          3
     1  O    0.000000
     2  H    0.959246   0.000000
     3  H    0.959246   1.514320   0.000000
 Stoichiometry    H2O
 Framework group  C2V[C2(O),SGV(H2)]
 Deg. of freedom     2
 Full point group                 C2V     NOp   4
 Largest Abelian subgroup         C2V     NOp   4
 Largest concise Abelian subgroup C2      NOp   2
                         Standard orientation:                         
 ---------------------------------------------------------------------
 Center     Atomic      Atomic             Coordinates (Angstroms)
 Number     Number       Type             X           Y           Z
 ---------------------------------------------------------------------
      1          8           0       -0.000000    0.000000    0.117790
      2          1           0        0.000000    0.757160   -0.471160
      3          1           0       -0.000000   -0.757160   -0.471160
 ---------------------------------------------------------------------
 Rotational constants (GHZ):         813.9366644         437.3475880         284.4863078
 Leave Link  202 at Wed Jul 30 07:45:14 2025, MaxMem= 12348030976 cpu:               0.3 elap:               0.0
 (Enter /home/hhratchian/gaussian/gdv-20250101-j30+/gdv/local/l301.exe)
 Standard basis: STO-3G (5D, 7F)
 Ernie: Thresh=  0.10000D-02 Tol=  0.10000D-05 Strict=F.
 There are     4 symmetry adapted cartesian basis functions of A1  symmetry.
 There are     0 symmetry adapted cartesian basis functions of A2  symmetry.
 There are     1 symmetry adapted cartesian basis functions of B1  symmetry.
 There are     2 symmetry adapted cartesian basis functions of B2  symmetry.
 There are     4 symmetry adapted basis functions of A1  symmetry.
 There are     0 symmetry adapted basis functions of A2  symmetry.
 There are     1 symmetry adapted basis functions of B1  symmetry.
 There are     2 symmetry adapted basis functions of B2  symmetry.
     7 basis functions,    21 primitive gaussians,     7 cartesian basis functions
     5 alpha electrons        5 beta electrons
       nuclear repulsion energy         9.1759991401 Hartrees.
 IExCor=      4002 DFT=T Ex+Corr=B3LYP ScaHFX=  0.200000
 ScaDFX=  0.800000  0.720000  1.000000  0.810000  1.000000  0.000000
 ScaDFX=  0.000000  0.000000  0.000000  0.000000  0.000000  0.000000
 Grid=UltraFine IRanWt=     -1 IRanGd=            0 ICorTp=0 IEDCtl=  2004
 NAtoms=    3 NActive=    3 NUniq=    2 SFac= 2.25D+00 NAtFMM=   60 NAOKFM=F Big=F
 Integral buffers will be    131072 words long.
 Raffenetti 2 integral format.
 Two-electron integral symmetry is turned on.
 Leave Link  301 at Wed Jul 30 07:45:14 2025, MaxMem= 12348030976 cpu:               0.2 elap:               0.1
 (Enter /home/hhratchian/gaussian/gdv-20250101-j30+/gdv/l302.exe)
 NPDir=0 NMtPBC=     1 NCelOv=     1 NCel=       1 NClECP=     1 NCelD=      1
         NCelK=      1 NCelE2=     1 NClLst=     1 CellRange=     0.0.
 One-electron integrals computed using PRISM.
 One-electron integral symmetry used in STVInt
 NBasis=     7 RedAO= T EigKep=  3.44D-01  NBF=     4     0     1     2
 NBsUse=     7 1.00D-06 EigRej= -1.00D+00 NBFU=     4     0     1     2
 Precomputing XC quadrature grid using
 IXCGrd=   9 Grid=UltraFine IRanWt=          -1 IRanGd=           0 AccXCQ= 0.00D+00.
 Generated NRdTot=       0 NPtTot=       67993 NUsed=           0 NTot=          64
 NSgBfM=     7     7     7     7     7 MxSgAt=     3 MxSgA2=     3 SizInc=   0.000
 NMBTot=      611 MaxBatPerAtom=       81 MaxMicBPerAtom=      208 NBfPt=              413172.
 Leave Link  302 at Wed Jul 30 07:45:14 2025, MaxMem= 12348030976 cpu:               2.2 elap:               0.1
 (Enter /home/hhratchian/gaussian/gdv-20250101-j30+/gdv/l303.exe)
 DipDrv:  MaxL=1.
 Leave Link  303 at Wed Jul 30 07:45:14 2025, MaxMem= 12348030976 cpu:               0.2 elap:               0.0
 (Enter /home/hhratchian/gaussian/gdv-20250101-j30+/gdv/l401.exe)
 ExpMin= 1.69D-01 ExpMax= 1.31D+02 ExpMxC= 1.31D+02 IAcc=3 Grid=UltraFine AccDes= 0.00D+00
 Harris functional with IExCor= 4002 and Grid=UltraFine diagonalized for initial guess.
 HarFok:  IExCor=    4002 AccDes= 0.00D+00 Grid=UltraFine IDoV= 1 UseB2=F ITyADJ=14 ICtDFT=  3500011
 FoFCou: FMM=F IPFlag=           0 FMFlag=      100000 FMFlg1=           0
         NFxFlg=           0 DoJE=T BraDBF=F KetDBF=T FulRan=T
         wScrn=  0.000000 ICntrl=       500 IOpCl=  0 I1Cent=   200000004 NGrid=           0
         NMat0=    1 NMatS0=      1 NMatT0=    0 NMatD0=    1 NMtDS0=    0 NMtDT0=    0
 Petite list used in FoFCou.
 Harris En= -75.3697546343901    
 JPrj=0 DoOrth=F DoCkMO=F.
 Initial guess orbital symmetries:
 Alpha Orbitals:
       Occupied  (A1) (A1) (B2) (A1) (B1)
       Virtual   (A1) (B2)
 Beta  Orbitals:
       Occupied  (A1) (A1) (B2) (A1) (B1)
       Virtual   (A1) (B2)
 The electronic state of the initial guess is 1-A1.
 Initial guess <Sx>=  0.0000 <Sy>=  0.0000 <Sz>=  0.0000 <S**2>=   0.0000 S=  0.0000
 Leave Link  401 at Wed Jul 30 07:45:14 2025, MaxMem= 12348030976 cpu:               3.4 elap:               0.1
 (Enter /home/hhratchian/gaussian/gdv-20250101-j30+/gdv/local/l502.exe)
 Keep R1 and R2 ints in memory in symmetry-blocked form, NReq=47702120.
 FoFCou: FMM=F IPFlag=           0 FMFlag=           0 FMFlg1=           0
         NFxFlg=           0 DoJE=F BraDBF=F KetDBF=F FulRan=T
         wScrn=  0.000000 ICntrl=       600 IOpCl=  0 I1Cent=           0 NGrid=           0
         NMat0=    1 NMatS0=     28 NMatT0=    0 NMatD0=    1 NMtDS0=    0 NMtDT0=    0
 Petite list used in FoFCou.
 UHF open shell SCF:
 Using DIIS extrapolation, IDIIS=  1040.
 NGot= 12348030976 LenX= 12348027824 LenY= 12348026942
 Requested convergence on RMS density matrix=1.00D-08 within 128 cycles.
 Requested convergence on MAX density matrix=1.00D-06.
 Requested convergence on             energy=1.00D-06.
 No special actions if energy rises.
 Integral accuracy reduced to 1.0D-05 until final iterations.
 
  Hrant - CycOpn.
 

 Cycle   1  Pass 0  IDiag  1:
 E= -75.2641074882484    
 DIIS: error= 7.41D-02 at cycle   1 NSaved=   1.
 NSaved= 1 IEnMin= 1 EnMin= -75.2641074882484     IErMin= 1 ErrMin= 7.41D-02
 ErrMax= 7.41D-02  0.00D+00 EMaxC= 1.00D-01 BMatC= 1.40D-01 BMatP= 1.40D-01
 Rises=F IDIUse=3 WtCom= 2.59D-01 WtEn= 7.41D-01
 Coeff-Com:  0.100D+01
 Coeff-En:   0.100D+01
 Coeff:      0.100D+01
 Gap=     0.408 Goal=   None    Shift=    0.000
 Gap=     0.408 Goal=   None    Shift=    0.000
 GapD=    0.408 DampG=2.000 DampE=0.500 DampFc=1.0000 IDamp=-1.
 RMSDP=6.51D-02 MaxDP=2.00D-01              OVMax= 0.00D+00

 Cycle   2  Pass 0  IDiag  1:
 E= -75.2884700558938     Delta-E=       -0.024362567645 Rises=F Damp=F AM=F Ri=F Fa=F
 DIIS: error= 4.97D-02 at cycle   2 NSaved=   2.
 NSaved= 2 IEnMin= 2 EnMin= -75.2884700558938     IErMin= 2 ErrMin= 4.97D-02
 ErrMax= 4.97D-02  0.00D+00 EMaxC= 1.00D-01 BMatC= 7.51D-02 BMatP= 1.40D-01
 Rises=F IDIUse=3 WtCom= 5.03D-01 WtEn= 4.97D-01
 Coeff-Com:  0.423D+00 0.577D+00
 Coeff-En:   0.291D+00 0.709D+00
 Coeff:      0.357D+00 0.643D+00
 Gap=     0.503 Goal=   None    Shift=    0.000
 Gap=     0.503 Goal=   None    Shift=    0.000
 RMSDP=2.97D-02 MaxDP=9.60D-02 DE=-2.44D-02 OVMax= 0.00D+00

 Cycle   3  Pass 0  IDiag  1:
 E= -75.3126882282291     Delta-E=       -0.024218172335 Rises=F Damp=F AM=F Ri=F Fa=F
 DIIS: error= 5.84D-03 at cycle   3 NSaved=   3.
 NSaved= 3 IEnMin= 3 EnMin= -75.3126882282291     IErMin= 3 ErrMin= 5.84D-03
 ErrMax= 5.84D-03  0.00D+00 EMaxC= 1.00D-01 BMatC= 9.85D-04 BMatP= 7.51D-02
 Rises=F IDIUse=3 WtCom= 9.55D-01 WtEn= 4.46D-02
 Coeff-Com: -0.169D-01 0.839D-01 0.933D+00
 Coeff-En:   0.000D+00 0.000D+00 0.100D+01
 Coeff:     -0.162D-01 0.801D-01 0.936D+00
 Gap=     0.498 Goal=   None    Shift=    0.000
 Gap=     0.498 Goal=   None    Shift=    0.000
 RMSDP=3.02D-03 MaxDP=9.55D-03 DE=-2.42D-02 OVMax= 0.00D+00

 Cycle   4  Pass 0  IDiag  1:
 E= -75.3130067599355     Delta-E=       -0.000318531706 Rises=F Damp=F AM=F Ri=F Fa=F
 DIIS: error= 1.10D-04 at cycle   4 NSaved=   4.
 NSaved= 4 IEnMin= 4 EnMin= -75.3130067599355     IErMin= 4 ErrMin= 1.10D-04
 ErrMax= 1.10D-04  0.00D+00 EMaxC= 1.00D-01 BMatC= 4.66D-07 BMatP= 9.85D-04
 Rises=F IDIUse=3 WtCom= 1.00D+00 WtEn= 1.15D-04
 Coeff-Com: -0.561D-03-0.502D-02-0.152D-01 0.102D+01
 Coeff-En:   0.000D+00 0.000D+00 0.000D+00 0.100D+01
 Coeff:     -0.560D-03-0.502D-02-0.152D-01 0.102D+01
 Gap=     0.499 Goal=   None    Shift=    0.000
 Gap=     0.499 Goal=   None    Shift=    0.000
 RMSDP=7.62D-05 MaxDP=2.61D-04 DE=-3.19D-04 OVMax= 0.00D+00

 Cycle   5  Pass 0  IDiag  1:
 E= -75.3130069224449     Delta-E=       -0.000000162509 Rises=F Damp=F AM=F Ri=F Fa=F
 DIIS: error= 1.22D-06 at cycle   5 NSaved=   5.
 NSaved= 5 IEnMin= 5 EnMin= -75.3130069224449     IErMin= 5 ErrMin= 1.22D-06
 ErrMax= 1.22D-06  0.00D+00 EMaxC= 1.00D-01 BMatC= 6.32D-11 BMatP= 4.66D-07
 Rises=F IDIUse=1 WtCom= 1.00D+00 WtEn= 0.00D+00
 Coeff-Com:  0.786D-04-0.341D-03-0.472D-02-0.357D-01 0.104D+01
 Coeff:      0.786D-04-0.341D-03-0.472D-02-0.357D-01 0.104D+01
 Gap=     0.499 Goal=   None    Shift=    0.000
 Gap=     0.499 Goal=   None    Shift=    0.000
 RMSDP=2.35D-06 MaxDP=8.12D-06 DE=-1.63D-07 OVMax= 0.00D+00

 Initial convergence to 1.0D-05 achieved.  Increase integral accuracy.
 Cycle   6  Pass 1  IDiag  1:
 E= -75.3130064119992     Delta-E=        0.000000510446 Rises=F Damp=F AM=F Ri=F Fa=F
 DIIS: error= 1.39D-07 at cycle   1 NSaved=   1.
 NSaved= 1 IEnMin= 1 EnMin= -75.3130064119992     IErMin= 1 ErrMin= 1.39D-07
 ErrMax= 1.39D-07  0.00D+00 EMaxC= 1.00D-01 BMatC= 5.16D-13 BMatP= 5.16D-13
 Rises=F IDIUse=1 WtCom= 1.00D+00 WtEn= 0.00D+00
 Coeff-Com:  0.100D+01
 Coeff:      0.100D+01
 Gap=     0.499 Goal=   None    Shift=    0.000
 Gap=     0.499 Goal=   None    Shift=    0.000
 RMSDP=2.35D-06 MaxDP=8.12D-06 DE= 5.10D-07 OVMax= 0.00D+00

 Cycle   7  Pass 1  IDiag  1:
 E= -75.3130064119992     Delta-E=       -0.000000000000 Rises=F Damp=F AM=F Ri=F Fa=F
 DIIS: error= 4.34D-08 at cycle   2 NSaved=   2.
 NSaved= 2 IEnMin= 2 EnMin= -75.3130064119992     IErMin= 2 ErrMin= 4.34D-08
 ErrMax= 4.34D-08  0.00D+00 EMaxC= 1.00D-01 BMatC= 5.24D-14 BMatP= 5.16D-13
 Rises=F IDIUse=1 WtCom= 1.00D+00 WtEn= 0.00D+00
 Coeff-Com:  0.151D+00 0.849D+00
 Coeff:      0.151D+00 0.849D+00
 Gap=     0.499 Goal=   None    Shift=    0.000
 Gap=     0.499 Goal=   None    Shift=    0.000
 RMSDP=3.06D-08 MaxDP=9.85D-08 DE=-2.84D-14 OVMax= 0.00D+00

 Cycle   8  Pass 1  IDiag  1:
 E= -75.3130064119992     Delta-E=       -0.000000000000 Rises=F Damp=F AM=F Ri=F Fa=F
 DIIS: error= 1.85D-08 at cycle   3 NSaved=   3.
 NSaved= 3 IEnMin= 3 EnMin= -75.3130064119992     IErMin= 3 ErrMin= 1.85D-08
 ErrMax= 1.85D-08  0.00D+00 EMaxC= 1.00D-01 BMatC= 1.06D-14 BMatP= 5.24D-14
 Rises=F IDIUse=1 WtCom= 1.00D+00 WtEn= 0.00D+00
 Coeff-Com: -0.539D-02 0.308D+00 0.697D+00
 Coeff:     -0.539D-02 0.308D+00 0.697D+00
 Gap=     0.499 Goal=   None    Shift=    0.000
 Gap=     0.499 Goal=   None    Shift=    0.000
 RMSDP=1.01D-08 MaxDP=3.13D-08 DE=-2.84D-14 OVMax= 0.00D+00

 Cycle   9  Pass 1  IDiag  1:
 E= -75.3130064119992     Delta-E=       -0.000000000000 Rises=F Damp=F AM=F Ri=F Fa=F
 DIIS: error= 2.13D-10 at cycle   4 NSaved=   4.
 NSaved= 4 IEnMin= 4 EnMin= -75.3130064119992     IErMin= 4 ErrMin= 2.13D-10
 ErrMax= 2.13D-10  0.00D+00 EMaxC= 1.00D-01 BMatC= 1.00D-18 BMatP= 1.06D-14
 Rises=F IDIUse=1 WtCom= 1.00D+00 WtEn= 0.00D+00
 Coeff-Com:  0.575D-03-0.365D-01-0.737D-01 0.111D+01
 Coeff:      0.575D-03-0.365D-01-0.737D-01 0.111D+01
 Gap=     0.499 Goal=   None    Shift=    0.000
 Skip diagonalization as Alpha Fock matrix is already diagonal.
 Gap=     0.499 Goal=   None    Shift=    0.000
 Skip diagonalization as Beta Fock matrix is already diagonal.
 RMSDP=9.74D-33 MaxDP=3.60D-32 DE=-1.42D-14 OVMax= 0.00D+00

 SCF Done:  E(UB3LYP) =  -75.3130064120     A.U. after    9 cycles
            NFock=  9  Conv=0.97D-32     -V/T= 2.0097
 <Sx>=  0.0000 <Sy>=  0.0000 <Sz>=  0.0000 <S**2>=   0.0000 S=  0.0000
 <L.S>=  0.00000000000    
 KE=          74.592938 PE=        -196.922066 EE=          37.840122
 Annihilation of the first spin contaminant:
 S**2 before annihilation     0.0000,   after     0.0000
 Leave Link  502 at Wed Jul 30 07:45:15 2025, MaxMem= 12348030976 cpu:               5.0 elap:               0.2
 (Enter /home/hhratchian/gaussian/gdv-20250101-j30+/gdv/l801.exe)
 DoSCS=F DFT=T ScalE2(SS,OS)=  1.000000  1.000000
 Range of M.O.s used for correlation:     1     7
 NBasis=     7 NAE=     5 NBE=     5 NFC=     0 NFV=     0
 NROrb=      7 NOA=     5 NOB=     5 NVA=     2 NVB=     2
 Leave Link  801 at Wed Jul 30 07:45:15 2025, MaxMem= 12348030976 cpu:               0.2 elap:               0.0
 (Enter /home/hhratchian/gaussian/gdv-20250101-j30+/gdv/l1101.exe)
 Using compressed storage, NAtomX=     3.
 Will process      4 centers per pass.
 Leave Link 1101 at Wed Jul 30 07:45:15 2025, MaxMem= 12348030976 cpu:               1.8 elap:               0.1
 (Enter /home/hhratchian/gaussian/gdv-20250101-j30+/gdv/l1102.exe)
 Symmetrizing basis deriv contribution to polar:
 IMax=3 JMax=2 DiffMx= 0.00D+00
 Leave Link 1102 at Wed Jul 30 07:45:15 2025, MaxMem= 12348030976 cpu:               0.2 elap:               0.0
 (Enter /home/hhratchian/gaussian/gdv-20250101-j30+/gdv/l1110.exe)
 Forming Gx(P) for the SCF density, NAtomX=     3.
 Integral derivatives from FoFJK, PRISM(SPDF).
 Do as many integral derivatives as possible in FoFJK.
 G2DrvN: MDV=   12348030509.
 G2DrvN: will do     4 centers at a time, making    1 passes.
 Calling FoFCou, ICntrl=  3107 FMM=F I1Cent=   0 AccDes= 0.00D+00.
 FoFJK:  IHMeth= 1 ICntrl=    3107 DoSepK=F KAlg= 0 I1Cent=           0 FoldK=F
 IRaf=         0 NMat=       1 IRICut=       1 DoRegI=T DoRafI=F ISym2E= 1 IDoP0=0 IntGTp=1.
 FoFCou: FMM=F IPFlag=           0 FMFlag=      100000 FMFlg1=           0
         NFxFlg=           0 DoJE=F BraDBF=F KetDBF=F FulRan=T
         wScrn=  0.000000 ICntrl=      3107 IOpCl=  1 I1Cent=           0 NGrid=           0
         NMat0=    1 NMatS0=      1 NMatT0=    0 NMatD0=    1 NMtDS0=    0 NMtDT0=    0
 Petite list used in FoFCou.
 End of G2Drv FD prop file    721 does not exist.
 End of G2Drv FD prop file    722 does not exist.
 End of G2Drv FD prop file    788 does not exist.
 End of G2Drv FD prop file    804 does not exist.
 Leave Link 1110 at Wed Jul 30 07:45:15 2025, MaxMem= 12348030976 cpu:               3.0 elap:               0.1
 (Enter /home/hhratchian/gaussian/gdv-20250101-j30+/gdv/l1002.exe)
 Minotr:  UHF open shell wavefunction.
          IDoAtm=111
          Direct CPHF calculation.
          Differentiating once with respect to electric field.
                with respect to dipole field.
          Differentiating once with respect to nuclear coordinates.
          Using symmetry in CPHF.
          Requested convergence is 1.0D-08 RMS, and 1.0D-07 maximum.
          Secondary convergence is 1.0D-12 RMS, and 1.0D-12 maximum.
          NewPWx=T KeepS1=F KeepF1=F KeepIn=T MapXYZ=F SortEE=F KeepMc=T.
          996 words used for storage of precomputed grid.
 Keep R1 and R2 ints in memory in symmetry-blocked form, NReq=47518272.
 FoFCou: FMM=F IPFlag=           0 FMFlag=           0 FMFlg1=           0
         NFxFlg=           0 DoJE=F BraDBF=F KetDBF=F FulRan=T
         wScrn=  0.000000 ICntrl=       600 IOpCl=  0 I1Cent=           0 NGrid=           0
         NMat0=    1 NMatS0=     28 NMatT0=    0 NMatD0=    1 NMtDS0=    0 NMtDT0=    0
 Petite list used in FoFCou.
          MDV=   12348030976 using Grid=Medium.
          Solving linear equations simultaneously, MaxMat=       0.
          There are     9 degrees of freedom in the 1st order CPHF.  IDoFFX=4 NUNeed=     9.
      8 vectors produced by pass  0 Test12= 2.22D-16 1.11D-08 XBig12= 4.03D+00 1.04D+00.
 AX will form     8 AO Fock derivatives at one time.
      2 vectors produced by pass  1 Test12= 2.22D-16 1.11D-08 XBig12= 1.67D-03 2.36D-02.
 InvSVY:  IOpt=1 It=  1 EMax= 4.16D-17
 Solved reduced A of dimension    10 with     9 vectors.
 FullF1:  Do perturbations      1 to       9.
 Isotropic polarizability for W=    0.000000        2.44 Bohr**3.
 End of Minotr FD prop file    721 does not exist.
 End of Minotr FD prop file    722 does not exist.
 End of Minotr FD prop file    788 does not exist.
 End of Minotr FD prop file    804 does not exist.
 Leave Link 1002 at Wed Jul 30 07:45:18 2025, MaxMem= 12348030976 cpu:             172.4 elap:               3.1
 (Enter /home/hhratchian/gaussian/gdv-20250101-j30+/gdv/l601.exe)
 Copying SCF densities to generalized density rwf, IOpCl= 1 IROHF=0.
 
 **********************************************************************
 
               Population analysis using the SCF Density.
 
 **********************************************************************
 
 Orbital symmetries:
 Alpha Orbitals:
       Occupied  (A1) (A1) (B2) (A1) (B1)
       Virtual   (A1) (B2)
 Beta  Orbitals:
       Occupied  (A1) (A1) (B2) (A1) (B1)
       Virtual   (A1) (B2)
 The electronic state is 1-A1.
 Alpha  occ. eigenvalues --      -18.83568      -0.93503      -0.44258      -0.23125      -0.14426
 Alpha virt. eigenvalues --        0.35435       0.46942
  Beta  occ. eigenvalues --      -18.83568      -0.93503      -0.44258      -0.23125      -0.14426
  Beta virt. eigenvalues --        0.35435       0.46942
          Condensed to atoms (all electrons):
               1          2          3
     1  O    7.858431   0.253970   0.253970
     2  H    0.253970   0.608375  -0.045529
     3  H    0.253970  -0.045529   0.608375
          Atomic-Atomic Spin Densities.
               1          2          3
     1  O    0.000000   0.000000   0.000000
     2  H    0.000000   0.000000   0.000000
     3  H    0.000000   0.000000   0.000000
 Mulliken charges and spin densities:
               1          2
     1  O   -0.366370   0.000000
     2  H    0.183185   0.000000
     3  H    0.183185   0.000000
 Sum of Mulliken charges=   0.00000   0.00000
 Mulliken charges and spin densities with hydrogens summed into heavy atoms:
               1          2
     1  O    0.000000   0.000000
 APT charges:
               1
     1  O   -0.163615
     2  H    0.081807
     3  H    0.081807
 Sum of APT charges=  -0.00000
 APT charges with hydrogens summed into heavy atoms:
               1
     1  O   -0.000000
 Electronic spatial extent (au):  <R**2>=             17.8762
 Charge=              0.0000 electrons
 Dipole moment (field-independent basis, Debye):
    X=             -0.0000    Y=             -0.0000    Z=             -1.6773  Tot=              1.6773
 Quadrupole moment (field-independent basis, Debye-Ang):
   XX=             -6.1001   YY=             -4.3832   ZZ=             -5.3879
   XY=              0.0000   XZ=              0.0000   YZ=              0.0000
 Traceless Quadrupole moment (field-independent basis, Debye-Ang):
   XX=             -0.8097   YY=              0.9072   ZZ=             -0.0975
   XY=              0.0000   XZ=              0.0000   YZ=              0.0000
 Octapole moment (field-independent basis, Debye-Ang**2):
  XXX=              0.0000  YYY=              0.0000  ZZZ=             -0.1581  XYY=             -0.0000
  XXY=             -0.0000  XXZ=              0.0065  XZZ=              0.0000  YZZ=             -0.0000
  YYZ=             -0.5276  XYZ=             -0.0000
 Hexadecapole moment (field-independent basis, Debye-Ang**3):
 XXXX=             -3.2369 YYYY=             -6.5486 ZZZZ=             -4.9058 XXXY=             -0.0000
 XXXZ=             -0.0000 YYYX=             -0.0000 YYYZ=             -0.0000 ZZZX=             -0.0000
 ZZZY=              0.0000 XXYY=             -1.7801 XXZZ=             -1.3923 YYZZ=             -1.7009
 XXYZ=             -0.0000 YYXZ=              0.0000 ZZXY=             -0.0000
 N-N=           9.175999 E-N=        -196.922066  KE=          74.592938
 Symmetry A1   KE=          66.590369
 Symmetry A2   KE=           0.000000
 Symmetry B1   KE=           5.057462
 Symmetry B2   KE=           2.945107
 Symmetry A1   SP=           0.000000
 Symmetry A2   SP=           0.000000
 Symmetry B1   SP=           0.000000
 Symmetry B2   SP=           0.000000
                          Isotropic Fermi Contact Couplings
        Atom                 a.u.       MegaHertz       Gauss      10(-4) cm-1
     1  O(17)              0.00000      -0.00000      -0.00000      -0.00000
     2  H(1)               0.00000       0.00000       0.00000       0.00000
     3  H(1)               0.00000       0.00000       0.00000       0.00000
 --------------------------------------------------------
       Center         ----  Spin Dipole Couplings  ----
                      3XX-RR        3YY-RR        3ZZ-RR
 --------------------------------------------------------
     1   Atom        0.000000      0.000000      0.000000
     2   Atom        0.000000      0.000000      0.000000
     3   Atom        0.000000      0.000000      0.000000
 --------------------------------------------------------
                        XY            XZ            YZ
 --------------------------------------------------------
     1   Atom        0.000000      0.000000      0.000000
     2   Atom        0.000000      0.000000      0.000000
     3   Atom        0.000000      0.000000      0.000000
 --------------------------------------------------------


 ---------------------------------------------------------------------------------
              Anisotropic Spin Dipole Couplings in Principal Axis System
 ---------------------------------------------------------------------------------

       Atom             a.u.   MegaHertz   Gauss  10(-4) cm-1        Axes

              Baa     0.0000    -0.000    -0.000    -0.000  1.0000  0.0000  0.0000
     1 O(17)  Bbb     0.0000    -0.000    -0.000    -0.000 -0.0000  1.0000  0.0000
              Bcc     0.0000    -0.000    -0.000    -0.000  0.0000  0.0000  1.0000
 
              Baa     0.0000     0.000     0.000     0.000  1.0000  0.0000  0.0000
     2 H(1)   Bbb     0.0000     0.000     0.000     0.000 -0.0000  1.0000  0.0000
              Bcc     0.0000     0.000     0.000     0.000  0.0000  0.0000  1.0000
 
              Baa     0.0000     0.000     0.000     0.000  1.0000  0.0000  0.0000
     3 H(1)   Bbb     0.0000     0.000     0.000     0.000 -0.0000  1.0000  0.0000
              Bcc     0.0000     0.000     0.000     0.000  0.0000  0.0000  1.0000
 

 ---------------------------------------------------------------------------------

 No NMR shielding tensors so no spin-rotation constants.
 Leave Link  601 at Wed Jul 30 07:45:21 2025, MaxMem= 12348030976 cpu:               3.2 elap:               0.1
 (Enter /home/hhratchian/gaussian/gdv-20250101-j30+/gdv/l701.exe)
 ... and contract with generalized density number  0.
 Compute integral second derivatives.
 Leave Link  701 at Wed Jul 30 07:45:21 2025, MaxMem= 12348030976 cpu:               2.4 elap:               0.1
 (Enter /home/hhratchian/gaussian/gdv-20250101-j30+/gdv/l702.exe)
 L702 exits ... SP integral derivatives will be done elsewhere.
 Leave Link  702 at Wed Jul 30 07:45:21 2025, MaxMem= 12348030976 cpu:               0.1 elap:               0.0
 (Enter /home/hhratchian/gaussian/gdv-20250101-j30+/gdv/l703.exe)
 Integral derivatives from FoFJK, PRISM(SPDF).
 Compute integral second derivatives, UseDBF=F ICtDFT=           0.
 Calling FoFJK, ICntrl=    100127 FMM=F ISym2X=1 I1Cent= 0 IOpClX= 1 NMat=1 NMatS=1 NMatT=0.
 FoFJK:  IHMeth= 1 ICntrl=  100127 DoSepK=F KAlg= 0 I1Cent=           0 FoldK=F
 IRaf=         0 NMat=       1 IRICut=       1 DoRegI=T DoRafI=F ISym2E= 1 IDoP0=0 IntGTp=1.
 FoFCou: FMM=F IPFlag=           0 FMFlag=      100000 FMFlg1=         800
         NFxFlg=           0 DoJE=F BraDBF=F KetDBF=F FulRan=T
         wScrn=  0.000000 ICntrl=    100127 IOpCl=  1 I1Cent=           0 NGrid=           0
         NMat0=    1 NMatS0=      1 NMatT0=    0 NMatD0=    1 NMtDS0=    0 NMtDT0=    0
 Petite list used in FoFCou.
 Leave Link  703 at Wed Jul 30 07:45:22 2025, MaxMem= 12348030976 cpu:               5.3 elap:               0.2
 (Enter /home/hhratchian/gaussian/gdv-20250101-j30+/gdv/l716.exe)
 Dipole        =-3.73425067D-17-5.80561097D-17-6.59902540D-01
 Polarizability= 3.79985890D-02 3.22140382D-16 5.04400300D+00
                 2.07392677D-16-5.54492333D-13 2.23127761D+00
 Full mass-weighted force constant matrix:
 Low frequencies ----1179.0403-1020.8398 -922.2512   -0.0016   -0.0010    0.0006
 Low frequencies --- 1805.1484 4334.3273 4656.1540
 Diagonal vibrational polarizability:
        0.0000000       0.0429565       0.1428903
 Harmonic frequencies (cm**-1), IR intensities (KM/Mole), Raman scattering
 activities (A**4/AMU), depolarization ratios for plane and unpolarized
 incident light, reduced masses (AMU), force constants (mDyne/A),
 and normal coordinates:
                      1                      2                      3
                     A1                     A1                     B2
 Frequencies --   1805.1484              4334.3273              4655.8414
 Red. masses --      1.0821                 1.0457                 1.0816
 Frc consts  --      2.0775                11.5747                13.8138
 IR Inten    --      6.7747                60.6920                34.6013
  Atom  AN      X      Y      Z        X      Y      Z        X      Y      Z
     1   8    -0.00  -0.00  -0.07     0.00  -0.00   0.05    -0.00  -0.07  -0.00
     2   1     0.00   0.43   0.56     0.00   0.58  -0.40    -0.00   0.56  -0.43
     3   1     0.00  -0.43   0.56    -0.00  -0.58  -0.40     0.00   0.56   0.43

 -------------------
 - Thermochemistry -
 -------------------
 Temperature 298.150 Kelvin.  Pressure 1.00000 Atm.
 Atom     1 has atomic number  8 and mass  15.99491
 Atom     2 has atomic number  1 and mass   1.00783
 Atom     3 has atomic number  1 and mass   1.00783
 Molecular mass:    18.01056 amu.
 Principal axes and moments of inertia in atomic units:
                                 1                 2                 3
     Eigenvalues --            2.217299          4.126560          6.343860
           X                  -0.000000          0.000000          1.000000
           Y                   1.000000          0.000000          0.000000
           Z                  -0.000000          1.000000         -0.000000
 This molecule is an asymmetric top.
 Rotational symmetry number  2.
 Rotational temperatures (Kelvin)     39.06280    20.98938    13.65319
 Rotational constants (GHZ):         813.93666   437.34759   284.48631
 Zero-point vibrational energy      64570.3 (Joules/Mol)
                                   15.43268 (Kcal/Mol)
 Vibrational temperatures:   2597.21  6236.13  6698.72
          (Kelvin)
 
 Zero-point correction=                           0.024594 (Hartree/Particle)
 Thermal correction to Energy=                    0.027427
 Thermal correction to Enthalpy=                  0.028372
 Thermal correction to Gibbs Free Energy=         0.006956
 Sum of electronic and zero-point Energies=            -75.288413
 Sum of electronic and thermal Energies=               -75.285579
 Sum of electronic and thermal Enthalpies=             -75.284635
 Sum of electronic and thermal Free Energies=          -75.306050
 
                     E (Thermal)             CV                S
                      KCal/Mol        Cal/Mol-Kelvin    Cal/Mol-Kelvin
 Total                   17.211              5.986             45.072
 Electronic               0.000              0.000              0.000
 Translational            0.889              2.981             34.608
 Rotational               0.889              2.981             10.461
 Vibrational             15.434              0.025              0.003
                       Q            Log10(Q)             Ln(Q)
 Total Bot       0.631366D-03         -3.199719         -7.367625
 Total V=0       0.129573D+09          8.112515         18.679756
 Vib (Bot)       0.487346D-11        -11.312162        -26.047216
 Vib (V=0)       0.100016D+01          0.000072          0.000165
 Electronic      0.100000D+01          0.000000          0.000000
 Translational   0.300431D+07          6.477745         14.915559
 Rotational      0.431220D+02          1.634699          3.764033
 
                                                             H2O neutral
                                                             IR Spectrum
 
     4        4                                                                    1                                                 
     6        3                                                                    8                                                 
     5        3                                                                    0                                                 
     6        4                                                                    5                                                 
 
     X        X                                                                    X                                                 
     X        X                                                                    X                                                 
     X        X                                                                                                                      
     X        X                                                                                                                      
     X        X                                                                                                                      
     X        X                                                                                                                      
     X        X                                                                                                                      
     X        X                                                                                                                      
     X        X                                                                                                                      
     X        X                                                                                                                      
     X        X                                                                                                                      
              X                                                                                                                      
              X                                                                                                                      
              X                                                                                                                      
              X                                                                                                                      
              X                                                                                                                      
              X                                                                                                                      
              X                                                                                                                      
              X                                                                                                                      
              X                                                                                                                      
 
 ***** Axes restored to original set *****
 -------------------------------------------------------------------
 Center     Atomic                   Forces (Hartrees/Bohr)
 Number     Number              X              Y              Z
 -------------------------------------------------------------------
      1        8          -0.000000000   -0.000000000    0.104844312
      2        1           0.000000000    0.046437131   -0.052422156
      3        1           0.000000000   -0.046437131   -0.052422156
 -------------------------------------------------------------------
 Cartesian Forces:  Max     0.104844312 RMS     0.048075530
 Z-matrix is all fixed cartesians, so copy forces.
 Force constants in Cartesian coordinates: 
                1             2             3             4             5 
      1 -0.941713D-01
      2  0.000000D+00  0.913975D+00
      3  0.000000D+00  0.000000D+00  0.584295D+00
      4  0.470856D-01  0.000000D+00  0.000000D+00 -0.397626D-01
      5  0.000000D+00 -0.456987D+00  0.265417D+00  0.000000D+00  0.484405D+00
      6  0.000000D+00  0.392087D+00 -0.292147D+00  0.000000D+00 -0.328752D+00
      7  0.470856D-01  0.000000D+00  0.000000D+00 -0.732304D-02  0.000000D+00
      8  0.000000D+00 -0.456987D+00 -0.265417D+00  0.000000D+00 -0.274179D-01
      9  0.000000D+00 -0.392087D+00 -0.292147D+00  0.000000D+00  0.633351D-01
                6             7             8             9 
      6  0.282342D+00
      7  0.000000D+00 -0.397626D-01
      8 -0.633351D-01  0.000000D+00  0.484405D+00
      9  0.980545D-02  0.000000D+00  0.328752D+00  0.282342D+00
 Leave Link  716 at Wed Jul 30 07:45:22 2025, MaxMem= 12348030976 cpu:               0.3 elap:               0.0
 (Enter /home/hhratchian/gaussian/gdv-20250101-j30+/gdv/l103.exe)

 GradGradGradGradGradGradGradGradGradGradGradGradGradGradGradGradGradGrad
 Berny optimization.
 Search for a local minimum.
 Step number   1 out of a maximum of    2
 All quantities printed in internal units (Hartrees-Bohrs-Radians)
 Second derivative matrix not updated -- analytic derivatives used.
 The second derivative matrix:
                          X1        Y1        Z1        X2        Y2
           X1          -0.09417
           Y1           0.00000   0.91397
           Z1          -0.00000   0.00000   0.58429
           X2           0.04709  -0.00000   0.00000  -0.03976
           Y2          -0.00000  -0.45699   0.26542   0.00000   0.48441
           Z2           0.00000   0.39209  -0.29215  -0.00000  -0.32875
           X3           0.04709  -0.00000   0.00000  -0.00732  -0.00000
           Y3          -0.00000  -0.45699  -0.26542  -0.00000  -0.02742
           Z3          -0.00000  -0.39209  -0.29215   0.00000   0.06334
                          Z2        X3        Y3        Z3
           Z2           0.28234
           X3          -0.00000  -0.03976
           Y3          -0.06334   0.00000   0.48441
           Z3           0.00981  -0.00000   0.32875   0.28234
 ITU=  0
     Eigenvalues ---    0.18246   1.01047   1.36813
 Angle between quadratic step and forces=  39.85 degrees.
 ClnCor:  largest displacement from symmetrization is 1.18D-15 for atom     3.
 Linear search not attempted -- first point.
 ClnCor:  largest displacement from symmetrization is 4.44D-16 for atom     3.
 B after Tr=     0.000000   -0.000000    0.046307
         Rot=    1.000000    0.000000   -0.000000    0.000000 Ang=   0.00 deg.
 Variable       Old X    -DE/DX   Delta X   Delta X   Delta X     New X
                                 (Linear)    (Quad)   (Total)
    X1       -0.00000  -0.00000   0.00000   0.00000   0.00000   0.00000
    Y1       -0.00000  -0.00000   0.00000  -0.00000  -0.00000  -0.00000
    Z1        0.22259   0.10484   0.00000   0.07598   0.12228   0.34487
    X2        0.00000   0.00000   0.00000  -0.00000  -0.00000   0.00000
    Y2        1.43083   0.04644   0.00000  -0.00439  -0.00439   1.42643
    Z2       -0.89036  -0.05242   0.00000  -0.10745  -0.06114  -0.95151
    X3       -0.00000   0.00000   0.00000  -0.00000  -0.00000  -0.00000
    Y3       -1.43083  -0.04644   0.00000   0.00439   0.00439  -1.42643
    Z3       -0.89036  -0.05242   0.00000  -0.10745  -0.06114  -0.95151
         Item               Value     Threshold  Converged?
 Maximum Force            0.104844     0.000450     NO 
 RMS     Force            0.048076     0.000300     NO 
 Maximum Displacement     0.122284     0.001800     NO 
 RMS     Displacement     0.049965     0.001200     NO 
 Predicted change in Energy=-9.411708D-03
 GradGradGradGradGradGradGradGradGradGradGradGradGradGradGradGradGradGrad

 Leave Link  103 at Wed Jul 30 07:45:22 2025, MaxMem= 12348030976 cpu:               0.3 elap:               0.1
 (Enter /home/hhratchian/gaussian/gdv-20250101-j30+/gdv/local/l9999.exe)

 ----------------------------------------------------------------------

 Electric dipole moment (input orientation):
 (Debye = 10**-18 statcoulomb cm , SI units = C m)
                  (au)            (Debye)         (10**-30 SI)
   Tot        0.659903D+00      0.167730D+01      0.559489D+01
   x          0.000000D+00      0.000000D+00      0.000000D+00
   y          0.000000D+00      0.000000D+00      0.000000D+00
   z         -0.659903D+00     -0.167730D+01     -0.559489D+01

 Dipole polarizability, Alpha (input orientation).
 (esu units = cm**3 , SI units = C**2 m**2 J**-1)
 Alpha(0;0):
               (au)            (10**-24 esu)      (10**-40 SI)
   iso        0.243776D+01      0.361239D+00      0.401932D+00
   aniso      0.434638D+01      0.644067D+00      0.716621D+00
   xx         0.379986D-01      0.563081D-02      0.626512D-02
   yx         0.000000D+00      0.000000D+00      0.000000D+00
   yy         0.504400D+01      0.747444D+00      0.831644D+00
   zx         0.000000D+00      0.000000D+00      0.000000D+00
   zy         0.000000D+00      0.000000D+00      0.000000D+00
   zz         0.223128D+01      0.330641D+00      0.367888D+00

 ----------------------------------------------------------------------

 Dipole orientation:
     8         -0.00000000          0.00000000         -0.22259084
     1          0.00000000         -1.43082503          0.89036336
     1         -0.00000000          1.43082503          0.89036336

 Electric dipole moment (dipole orientation):
 (Debye = 10**-18 statcoulomb cm , SI units = C m)
                  (au)            (Debye)         (10**-30 SI)
   Tot        0.659903D+00      0.167730D+01      0.559489D+01
   x          0.000000D+00      0.000000D+00      0.000000D+00
   y          0.000000D+00      0.000000D+00      0.000000D+00
   z          0.659903D+00      0.167730D+01      0.559489D+01

 Dipole polarizability, Alpha (dipole orientation).
 (esu units = cm**3 , SI units = C**2 m**2 J**-1)
 Alpha(0;0):
               (au)            (10**-24 esu)      (10**-40 SI)
   iso        0.243776D+01      0.361239D+00      0.401932D+00
   aniso      0.434638D+01      0.644067D+00      0.716621D+00
   xx         0.379986D-01      0.563081D-02      0.626512D-02
   yx         0.000000D+00      0.000000D+00      0.000000D+00
   yy         0.504400D+01      0.747444D+00      0.831644D+00
   zx         0.000000D+00      0.000000D+00      0.000000D+00
   zy         0.000000D+00      0.000000D+00      0.000000D+00
   zz         0.223128D+01      0.330641D+00      0.367888D+00

 ----------------------------------------------------------------------
 Unable to Open any file for archive entry.
 1\1\GINC-GNODE001\Freq\UB3LYP\STO-3G\H2O1\AABOUTAKA\30-Jul-2025\0\\#p 
 uB3LYP/STO-3G freq\\H2O neutral\\0,1\O,0.,0.,0.11779\H,0.,0.75716,-0.4
 7116\H,0.,-0.75716,-0.47116\\Version=ES64L-GDVRevJ.30+\State=1-A1\HF=-
 75.3130064\S2=0.\S2-1=0.\S2A=0.\RMSD=9.744e-33\RMSF=4.808e-02\ZeroPoin
 t=0.0245935\Thermal=0.0274275\ETot=-75.285579\HTot=-75.2846348\GTot=-7
 5.30605\Dipole=0.,0.,-0.6599025\DipoleDeriv=-0.5929293,0.,0.,0.,-0.003
 946,0.,0.,0.,0.1060317,0.2964646,0.,0.,0.,0.001973,0.1780687,0.,0.2290
 667,-0.0530159,0.2964646,0.,0.,0.,0.001973,-0.1780687,0.,-0.2290667,-0
 .0530159\Polar=0.0379986,0.,5.044003,0.,0.,2.2312776\Quadrupole=-0.602
 0075,0.6744654,-0.0724579,0.,0.,0.\PG=C02V [C2(O1),SGV(H2)]\NImag=0\\-
 0.09417129,0.,0.91397494,0.,0.,0.58429497,0.04708564,0.,0.,-0.03976260
 ,0.,-0.45698747,0.26541662,0.,0.48440534,0.,0.39208674,-0.29214748,0.,
 -0.32875168,0.28234204,0.04708564,0.,0.,-0.00732304,0.,0.,-0.03976260,
 0.,-0.45698747,-0.26541662,0.,-0.02741786,-0.06333506,0.,0.48440534,0.
 ,-0.39208674,-0.29214748,0.,0.06333506,0.00980545,0.,0.32875168,0.2823
 4204\\0.,0.,-0.10484431,0.,-0.04643713,0.05242216,0.,0.04643713,0.0524
 2216\\\@
 The archive entry for this job was punched.


 TELEVISION IS CALLED A MEDIUM BECAUSE IT ISN'T
 RARE, AND IT ISN'T WELL DONE.
 Job cpu time:       0 days  0 hours  3 minutes 25.1 seconds.
 Elapsed time:       0 days  0 hours  0 minutes  4.6 seconds.
 File lengths (MBytes):  RWF=     22 Int=      0 D2E=      0 Chk=      2 Scr=      2
 Normal termination of Gaussian DV at Wed Jul 30 07:45:22 2025.
